28
Properties=species:S:1:pos:R:3 Iteration=T 42=T Energy=T -611.64918621=T pbc="F F F"
C       -3.00647517      -0.27503755       1.12933329
C       -3.81328450      -0.62633268       0.04155052
C       -3.20424266      -0.95388414      -1.16029392
N       -1.88486114      -0.95706973      -1.34963890
C       -1.12239296      -0.62280764      -0.30708976
C       -1.62774268      -0.27402582       0.95021023
N        0.24080305      -0.65736391      -0.60045451
C        1.31321404      -0.39974209       0.21358704
O        1.22058726      -0.06721960       1.38340667
C        2.63684935      -0.62006392      -0.46592991
C        2.99231844       0.03631963      -1.77362185
C        3.66175779       0.47485427      -0.49791291
C        3.36462537       1.83087530       0.08631426
H        3.01445334      -1.62862822      -0.30451298
H        4.68830651       0.13947019      -0.36460161
H       -4.89563955      -0.64412419       0.13166172
H       -3.80432533      -1.23119897      -2.02523217
H       -0.94306368      -0.01612202       1.74777194
H        0.43132725      -0.92570564      -1.55695369
H        3.55598228      -0.53595996      -2.50475639
H        2.26866039       0.72572476      -2.20431542
H        2.34539344       2.15262443      -0.15240513
H        3.45287465       1.81698000       1.17679936
H        4.05511692       2.58153494      -0.31354314
C       -3.61093597       0.09547777       2.45178092
H       -4.21292974       1.00736540       2.36317316
H       -4.27547351      -0.69608847       2.81561118
H       -2.84089292       0.27034757       3.20766144
