28   
Iteration 0 Energy -0.17048561
C       -3.0956141800   -0.4637967500    0.7407149400
C       -3.6075613700    0.1805473100   -0.3906295500
C       -2.7182168100    0.6782897400   -1.3306905100
N       -1.3931807200    0.5819075400   -1.2255044900
C       -0.9121978700   -0.0327785200   -0.1424162600
C       -1.7151826300   -0.5707816000    0.8689266400
N        0.4812588100   -0.0742359600   -0.1300837100
C        1.3240774400   -0.6398653500    0.7919375700
O        0.9281798300   -1.2007742000    1.8022791800
C        2.7896925900   -0.5401197100    0.5177558400
C        3.3841594600   -0.7292111400   -0.8634085500
C        3.5319912300    0.5877143300   -0.1810250600
C        2.9016337400    1.8584364400   -0.7021236700
H        3.3287018500   -1.0105173800    1.3334944800
H        4.5046987900    0.7597053200    0.2760689100
H       -4.6785023100    0.2913571700   -0.5343030500
H       -3.0837567200    1.1852166100   -2.2221392800
H       -1.2511372900   -1.0539813700    1.7186468300
H        0.8726684300    0.3616640200   -0.9516099000
H        4.2383684500   -1.3926824600   -0.9595376000
H        2.6867695700   -0.7847763300   -1.6966748900
H        2.1386793300    1.6857707500   -1.4681081600
H        2.4463257600    2.4473139600    0.1008582300
H        3.6710988300    2.4758998700   -1.1771872300
C       -4.0093725800   -1.0361533100    1.7844496100
H       -4.7350377100   -0.2900102500    2.1263408900
H       -4.5795730400   -1.8804448000    1.3793079800
H       -3.4489670700   -1.3934930600    2.6522591900
28   
Iteration 1 Energy -0.17297006
C       -3.1119253428   -0.4521987023    0.7340214291
C       -3.5718767564    0.2016652872   -0.4131161862
C       -2.6391540269    0.6786132689   -1.3231311396
N       -1.3194535451    0.5516638775   -1.1713306173
C       -0.8772946104   -0.0714004230   -0.0751833839
C       -1.7369423199   -0.5880883579    0.9053257098
N        0.5175945015   -0.1361105130   -0.0303321864
C        1.4042237715   -0.6873360015    0.8609487092
O        1.0953254803   -1.2626216414    1.8909223234
C        2.8517799507   -0.5448993898    0.5085375573
C        3.3698566822   -0.7145131579   -0.9057144554
C        3.5162792858    0.6074337070   -0.2260919040
C        2.8154263693    1.8592434832   -0.7052575624
H        3.4530669857   -0.9993018655    1.2894138837
H        4.5075803697    0.8113705135    0.1744398105
H       -4.6343797243    0.3362235478   -0.5929297930
H       -2.9623042691    1.1927358193   -2.2267633866
H       -1.3236604622   -1.0818875368    1.7732504065
H        0.9044521212    0.2995711922   -0.8525028528
H        4.2372507966   -1.3511306719   -1.0541097036
H        2.6272571756   -0.7901569789   -1.6972194774
H        2.0152721308    1.6617376394   -1.4262131526
H        2.3887095555    2.4306966922    0.1258757152
H        3.5350182043    2.5034075557   -1.2217366898
C       -4.0727416835   -1.0040372186    1.7488680348
H       -4.7924646936   -0.2415102801    2.0666274492
H       -4.6476057274   -1.8361558625    1.3256236778
H       -3.5492864391   -1.3728131075    2.6353761517
28   
Iteration 2 Energy -0.17387435
C       -3.0844003156   -0.4355281060    0.7271261580
C       -3.5242562979    0.2061244680   -0.4347831591
C       -2.6047658457    0.6819511162   -1.3740221796
N       -1.2794875225    0.5453651912   -1.2070959684
C       -0.8073672667   -0.0644428356   -0.1141717602
C       -1.6958412048   -0.5593093941    0.8606480283
N        0.5841093365   -0.1450031087   -0.0558318356
C        1.4302639080   -0.7012649283    0.8648547578
O        1.0399739090   -1.2533701287    1.8737138209
C        2.9029324993   -0.5899536138    0.5346322005
C        3.3376516615   -0.7283586313   -0.9141935481
C        3.4879441331    0.5979680636   -0.2112160680
C        2.6869948377    1.8229482591   -0.6317974913
H        3.5921169234   -1.0243056217    1.2540568335
H        4.4883374153    0.8708388531    0.1197757132
H       -4.5849341526    0.3407937110   -0.6170359216
H       -2.9357339370    1.1840314923   -2.2816705008
H       -1.3111085983   -1.0502590809    1.7430098290
H        1.0107019824    0.2764883605   -0.8574439349
H        4.2252829649   -1.3224792193   -1.1199203614
H        2.5600679230   -0.8177481971   -1.6693831121
H        1.8482555523    1.5686002258   -1.2899596757
H        2.2917423539    2.3533950234    0.2431043524
H        3.3236220596    2.5217515107   -1.1876615492
C       -4.0530648604   -0.9658666701    1.7651195596
H       -4.7603695254   -0.1872474598    2.0737639156
H       -4.6346415973   -1.8025830443    1.3610454948
H       -3.5340224347   -1.3223351896    2.6629346796
28   
Iteration 3 Energy -0.17606506
C       -3.1009445273   -0.4444374767    0.7297963056
C       -3.5638595745    0.1965843081   -0.4241939357
C       -2.6441800697    0.6762803026   -1.3632428765
N       -1.3166940602    0.5451410383   -1.2042504745
C       -0.8434331388   -0.0662249884   -0.1133584934
C       -1.7123373338   -0.5722176876    0.8732485500
N        0.5478475264   -0.1408985347   -0.0627371525
C        1.4102571835   -0.6916704761    0.8441141776
O        1.0166542332   -1.2445589887    1.8503579821
C        2.8943121113   -0.5830439682    0.5306603071
C        3.3634617531   -0.7270162554   -0.9094245847
C        3.5200154001    0.5990189760   -0.2075238866
C        2.7624960640    1.8462741385   -0.6555989731
H        3.5537110501   -1.0273842016    1.2711957295
H        4.5160967121    0.8553525348    0.1487305103
H       -4.6264258899    0.3261527607   -0.5984346983
H       -2.9792271138    1.1795938976   -2.2687067704
H       -1.3240199955   -1.0643546582    1.7537468769
H        0.9648468951    0.2846740589   -0.8654846900
H        4.2494747924   -1.3326540241   -1.0869934567
H        2.6073597492   -0.8089822228   -1.6868726548
H        1.9380095309    1.6211059908   -1.3399910387
H        2.3570323284    2.3892739139    0.2069986922
H        3.4355199451    2.5256991538   -1.1924181162
C       -4.0652677302   -0.9807447368    1.7708445811
H       -4.7735219800   -0.2047808195    2.0840173772
H       -4.6454026334   -1.8185417813    1.3669953187
H       -3.5417773548   -1.3374392305    2.6661237233
28   
Iteration 4 Energy -0.17564641
C       -3.0799682551   -0.4422190450    0.7236065121
C       -3.5660719728    0.2033236883   -0.4193123062
C       -2.6436034368    0.6830280660   -1.3567009781
N       -1.3129876233    0.5575066490   -1.2218339589
C       -0.8491565351   -0.0603990170   -0.1321621906
C       -1.6912553630   -0.5774046084    0.8700015008
N        0.5408215447   -0.1380522464   -0.0852001413
C        1.3688072078   -0.7045552887    0.8431745224
O        1.0394760732   -1.2667028381    1.8664434515
C        2.8536270478   -0.5813092932    0.5304482431
C        3.3547428347   -0.7280729048   -0.9000509882
C        3.5006247152    0.5986047265   -0.1959203646
C        2.7604246241    1.8487421967   -0.6693610153
H        3.4561107303   -1.0405937403    1.3084377450
H        4.4905037880    0.8541729072    0.1776559701
H       -4.6302955956    0.3337872100   -0.5833356486
H       -2.9856980668    1.1909678527   -2.2569038968
H       -1.2869538668   -1.0722585276    1.7430450733
H        0.9719786397    0.2899952083   -0.8791975322
H        4.2473457529   -1.3300600176   -1.0541090521
H        2.6220240557   -0.8090512469   -1.6997489297
H        1.9524983903    1.6263196127   -1.3740297538
H        2.3365538630    2.3978621732    0.1801749752
H        3.4514391841    2.5223134400   -1.1901280675
C       -4.0366362394   -0.9835813485    1.7705307869
H       -4.7413785199   -0.2089134663    2.0943309323
H       -4.6191001251   -1.8207985384    1.3688191024
H       -3.5038685856   -1.3424504564    2.6589240208
28   
Iteration 5 Energy -0.17666607
C       -3.0999385244   -0.4464619175    0.7308464897
C       -3.5691925472    0.2004791180   -0.4177351457
C       -2.6486929930    0.6804308378   -1.3574267180
N       -1.3186061986    0.5509562420   -1.2154812082
C       -0.8518628749   -0.0659808613   -0.1261919858
C       -1.7097400275   -0.5760309712    0.8665115493
N        0.5376800445   -0.1475989046   -0.0724570875
C        1.3911022378   -0.7036649044    0.8388113010
O        1.0212026353   -1.2582568368    1.8522939740
C        2.8761291083   -0.5791339417    0.5270089583
C        3.3697775226   -0.7252749002   -0.9058557759
C        3.5170116282    0.6016592074   -0.1985871687
C        2.7743876698    1.8513253706   -0.6695958677
H        3.4869144052   -1.0372332692    1.2995182276
H        4.5079639140    0.8600325822    0.1701175354
H       -4.6322484007    0.3337312680   -0.5869151645
H       -2.9890854530    1.1879548712   -2.2585140175
H       -1.3104569817   -1.0711208269    1.7417020136
H        0.9621426268    0.2825648908   -0.8690188355
H        4.2639699662   -1.3236910836   -1.0647507892
H        2.6348717488   -0.8068169108   -1.7034824816
H        1.9658019485    1.6276633427   -1.3737006351
H        2.3517665545    2.3989425693    0.1815776947
H        3.4636280224    2.5269162782   -1.1901884595
C       -4.0596454082   -0.9855066929    1.7771266888
H       -4.7633991352   -0.2091762237    2.0991825072
H       -4.6423413547   -1.8226518221    1.3756009511
H       -3.5291356800   -1.3438553437    2.6672014664
28   
Iteration 6 Energy -0.17665520
C       -3.0915680461   -0.4424312259    0.7245813503
C       -3.5672588859    0.2005610745   -0.4231965444
C       -2.6435963508    0.6758144029   -1.3621733790
N       -1.3151130623    0.5396939187   -1.2086951277
C       -0.8478983476   -0.0748774765   -0.1179347691
C       -1.7042702449   -0.5823485951    0.8778577375
N        0.5420675812   -0.1557137394   -0.0679038691
C        1.3979834144   -0.7077314847    0.8434449782
O        1.0226901890   -1.2627651329    1.8545883485
C        2.8827855320   -0.5825749466    0.5310613755
C        3.3588371159   -0.7232163027   -0.9082579243
C        3.5108366970    0.6020713531   -0.1981860176
C        2.7618911329    1.8510969881   -0.6612042315
H        3.5179095160   -1.0384780925    1.2852257866
H        4.5066473961    0.8627018402    0.1555013656
H       -4.6304679493    0.3335527798   -0.5913885723
H       -2.9775655454    1.1818140230   -2.2665221383
H       -1.3146083955   -1.0767153938    1.7573986134
H        0.9649525214    0.2746031328   -0.8651609152
H        4.2558408178   -1.3135629473   -1.0810835839
H        2.6157571961   -0.8043657271   -1.6983308407
H        1.9500358639    1.6281430108   -1.3617609245
H        2.3438941597    2.3954673477    0.1943739263
H        3.4466076456    2.5302436469   -1.1832187975
C       -4.0568479916   -0.9743889262    1.7695756252
H       -4.7587341848   -0.1942762419    2.0865528460
H       -4.6405478094   -1.8115311656    1.3695326426
H       -3.5302556268   -1.3305851040    2.6629210081
28   
Iteration 7 Energy -0.17673336
C       -3.0966124593   -0.4446926703    0.7275877947
C       -3.5693571975    0.1991746457   -0.4210235316
C       -2.6473453445    0.6755330604   -1.3609796561
N       -1.3180160773    0.5426445709   -1.2134847097
C       -0.8497047743   -0.0720629254   -0.1234910565
C       -1.7077027842   -0.5791895779    0.8708422621
N        0.5401652876   -0.1531980888   -0.0727359632
C        1.3933478949   -0.7063885006    0.8405573766
O        1.0211114189   -1.2622483037    1.8523938614
C        2.8789704555   -0.5816748274    0.5312649994
C        3.3614042727   -0.7232700968   -0.9061571098
C        3.5131475599    0.6015277988   -0.1960865274
C        2.7702509416    1.8525794412   -0.6635235764
H        3.5078712500   -1.0395413328    1.2893383993
H        4.5081667659    0.8595815059    0.1617135593
H       -4.6325085542    0.3323693572   -0.5895522964
H       -2.9846479916    1.1814409205   -2.2641381167
H       -1.3138704555   -1.0732599312    1.7487897298
H        0.9643071992    0.2773078145   -0.8692665816
H        4.2582898554   -1.3150028412   -1.0746818265
H        2.6221514987   -0.8030670143   -1.6999543016
H        1.9615285813    1.6324104352   -1.3684733150
H        2.3494518742    2.3986128345    0.1895897136
H        3.4598850696    2.5294169992   -1.1820154400
C       -4.0584568351   -0.9785197231    1.7747532734
H       -4.7606786214   -0.1995960426    2.0938854858
H       -4.6419099671   -1.8163596547    1.3757991399
H       -3.5292345279   -1.3343268470    2.6666463844
28   
Iteration 8 Energy -0.17674796
C       -3.0961733188   -0.4445977204    0.7290364251
C       -3.5658080827    0.2017568439   -0.4195065074
C       -2.6447032517    0.6783312365   -1.3600666407
N       -1.3155567000    0.5436395539   -1.2138058132
C       -0.8506201539   -0.0732970108   -0.1237719952
C       -1.7073953396   -0.5807182311    0.8711410761
N        0.5389666922   -0.1568893100   -0.0720840161
C        1.3936004954   -0.7097804640    0.8401361338
O        1.0229232204   -1.2658978195    1.8524661191
C        2.8782896290   -0.5811396553    0.5302641097
C        3.3658320478   -0.7221840445   -0.9055487370
C        3.5117685187    0.6029517316   -0.1951707665
C        2.7659354592    1.8505152576   -0.6663802111
H        3.4994581008   -1.0418193671    1.2928997156
H        4.5063006724    0.8632637613    0.1623712584
H       -4.6287734526    0.3369302454   -0.5878048150
H       -2.9823235950    1.1857396859   -2.2622610452
H       -1.3117757064   -1.0759767732    1.7477341119
H        0.9631038140    0.2759523292   -0.8675509007
H        4.2659210540   -1.3093793622   -1.0726776984
H        2.6301063902   -0.8026588087   -1.7025540116
H        1.9620550067    1.6257292676   -1.3755616223
H        2.3376562883    2.3943346830    0.1843706287
H        3.4550726309    2.5309862509   -1.1807097194
C       -4.0591688856   -0.9778367318    1.7752648117
H       -4.7603380943   -0.1981727103    2.0948588153
H       -4.6435691034   -1.8146178404    1.3754655265
H       -3.5307799380   -1.3349640240    2.6670437340
28   
Iteration 9 Energy -0.17675614
C       -3.0976222519   -0.4438256219    0.7282117034
C       -3.5706517104    0.2027829734   -0.4187441992
C       -2.6471722309    0.6775430686   -1.3578967810
N       -1.3176499677    0.5427441800   -1.2146064970
C       -0.8497203210   -0.0744948012   -0.1260171351
C       -1.7086465611   -0.5803279516    0.8678645904
N        0.5398855328   -0.1589254984   -0.0755608317
C        1.3928751409   -0.7113217575    0.8385343414
O        1.0207609683   -1.2675447381    1.8502528644
C        2.8779339046   -0.5811554908    0.5315598304
C        3.3679959898   -0.7218766864   -0.9033530378
C        3.5117200901    0.6033710562   -0.1922639387
C        2.7668459317    1.8501326413   -0.6670753544
H        3.4975950421   -1.0441904009    1.2940129544
H        4.5067699640    0.8639549523    0.1636370368
H       -4.6335987908    0.3389913052   -0.5862955177
H       -2.9845522513    1.1855328941   -2.2598550118
H       -1.3134790016   -1.0762134058    1.7442610881
H        0.9645619226    0.2753140200   -0.8699768876
H        4.2705776665   -1.3052300261   -1.0705380076
H        2.6345968993   -0.8018596095   -1.7025574599
H        1.9687321915    1.6248017698   -1.3826353732
H        2.3313925729    2.3918865923    0.1813571085
H        3.4584353014    2.5329568827   -1.1749702217
C       -4.0581524551   -0.9771504346    1.7766668322
H       -4.7588093158   -0.1976226535    2.0977174890
H       -4.6430036306   -1.8143716475    1.3784553721
H       -3.5276162105   -1.3337007150    2.6674129413
28   
Iteration 10 Energy -0.17676490
C       -3.0968373050   -0.4440585007    0.7290188636
C       -3.5676418011    0.2031702533   -0.4184194725
C       -2.6462464094    0.6782683015   -1.3594679240
N       -1.3170456698    0.5413994787   -1.2144041568
C       -0.8494662557   -0.0763693693   -0.1258344233
C       -1.7080130514   -0.5818552322    0.8687371867
N        0.5402273987   -0.1613524195   -0.0764561427
C        1.3923958425   -0.7124807453    0.8391864081
O        1.0212323429   -1.2693011732    1.8508996111
C        2.8777039833   -0.5812977023    0.5332656829
C        3.3660001943   -0.7217149909   -0.9021417632
C        3.5098814860    0.6038092958   -0.1911136678
C        2.7654842986    1.8504395486   -0.6673600172
H        3.5014091199   -1.0452118446    1.2919287491
H        4.5062823615    0.8644811650    0.1609132475
H       -4.6305735411    0.3400227145   -0.5854531920
H       -2.9837278639    1.1864911250   -2.2612582469
H       -1.3134478340   -1.0782070527    1.7450475780
H        0.9651457903    0.2735969212   -0.8702670749
H        4.2703421154   -1.3017173193   -1.0715724525
H        2.6322877628   -0.8017332286   -1.7010625291
H        1.9721084655    1.6258991816   -1.3884083499
H        2.3243235987    2.3895208101    0.1798579741
H        3.4589924565    2.5357405020   -1.1693037131
C       -4.0587015958   -0.9760453131    1.7769890939
H       -4.7590453005   -0.1957761548    2.0969438728
H       -4.6437610888   -1.8131274642    1.3787965383
H       -3.5293050692   -1.3323900884    2.6685362147
28   
Iteration 11 Energy -0.17677077
C       -3.0958765838   -0.4434678988    0.7288126202
C       -3.5662003761    0.2050547868   -0.4181905539
C       -2.6437920211    0.6803256671   -1.3580814263
N       -1.3146908104    0.5431026753   -1.2134679650
C       -0.8490997817   -0.0760230947   -0.1248780013
C       -1.7072578625   -0.5824129858    0.8694771468
N        0.5404624133   -0.1620103024   -0.0746318157
C        1.3937506609   -0.7121051341    0.8406100368
O        1.0222846013   -1.2683497110    1.8525977681
C        2.8788038877   -0.5812453517    0.5338009181
C        3.3666345977   -0.7223331451   -0.9016139690
C        3.5090636865    0.6040289062   -0.1921404627
C        2.7612990892    1.8484331055   -0.6686374448
H        3.5033292866   -1.0447145866    1.2920396052
H        4.5056532924    0.8662902492    0.1581717604
H       -4.6289833547    0.3426454378   -0.5856115296
H       -2.9807685266    1.1895279313   -2.2595068219
H       -1.3127006867   -1.0798169953    1.7452453106
H        0.9653099689    0.2732632292   -0.8683490052
H        4.2717942996   -1.3009365181   -1.0714140570
H        2.6324003644   -0.8039567795   -1.6998936555
H        1.9708605176    1.6211472047   -1.3921218313
H        2.3151136538    2.3842889002    0.1779885223
H        3.4533335997    2.5373863337   -1.1675924037
C       -4.0584810075   -0.9760528645    1.7756718001
H       -4.7592131381   -0.1960569521    2.0954320125
H       -4.6432427954   -1.8128722853    1.3764868728
H       -3.5297825652   -1.3329393041    2.6673946290
28   
Iteration 12 Energy -0.17677683
C       -3.0950509171   -0.4429625370    0.7286314418
C       -3.5653547520    0.2082058643   -0.4168950957
C       -2.6426004817    0.6849160610   -1.3557063509
N       -1.3136758266    0.5463960641   -1.2108985748
C       -0.8482721935   -0.0751612767   -0.1235892983
C       -1.7066382673   -0.5833559821    0.8696431444
N        0.5412184674   -0.1621278124   -0.0736001570
C        1.3949515190   -0.7107411368    0.8421848884
O        1.0230374724   -1.2650668905    1.8550904747
C        2.8798798120   -0.5804283939    0.5346859776
C        3.3686685892   -0.7238838136   -0.9000510751
C        3.5088191743    0.6042709667   -0.1935254313
C        2.7572928926    1.8455219159   -0.6721492003
H        3.5030495207   -1.0433404318    1.2943543313
H        4.5052101367    0.8689377093    0.1555487687
H       -4.6280863477    0.3466539106   -0.5839595993
H       -2.9790481171    1.1962116111   -2.2561439578
H       -1.3125454187   -1.0831175826    1.7443054214
H        0.9660063494    0.2733687165   -0.8672493428
H        4.2749387700   -1.3011067931   -1.0686304786
H        2.6346876923   -0.8083798794   -1.6982651356
H        1.9742906481    1.6143249283   -1.4026096415
H        2.3000342296    2.3754436628    0.1723099525
H        3.4486585679    2.5407887080   -1.1632111588
C       -4.0580482314   -0.9774703723    1.7740784193
H       -4.7596261774   -0.1983949425    2.0942261667
H       -4.6420470537   -1.8140805769    1.3733399415
H       -3.5297456354   -1.3352215522    2.6656835896
28   
Iteration 13 Energy -0.17678423
C       -3.0941075029   -0.4429272551    0.7284009379
C       -3.5639235270    0.2130768969   -0.4145969672
C       -2.6404786748    0.6926984223   -1.3512706805
N       -1.3116623158    0.5527941574   -1.2070107775
C       -0.8468494613   -0.0730174837   -0.1218944242
C       -1.7057860337   -0.5848584801    0.8689695086
N        0.5425261266   -0.1616465742   -0.0721340667
C        1.3961464206   -0.7070209453    0.8457591268
O        1.0241025722   -1.2569277974    1.8610339551
C        2.8810100864   -0.5783816826    0.5370518201
C        3.3692837692   -0.7272575396   -0.8970900287
C        3.5082652283    0.6041907957   -0.1963954975
C        2.7526153432    1.8416121303   -0.6784076554
H        3.5042858155   -1.0388653108    1.2980996354
H        4.5046186106    0.8719886841    0.1503859306
H       -4.6265228758    0.3528901238   -0.5813610788
H       -2.9764225450    1.2076527945   -2.2498092875
H       -1.3121977854   -1.0888692887    1.7414336520
H        0.9676599298    0.2728295795   -0.8661732603
H        4.2763437151   -1.3038269900   -1.0636602108
H        2.6346778199   -0.8168654805   -1.6941735863
H        1.9827193619    1.6062459438   -1.4215875140
H        2.2772472270    2.3617409497    0.1621599017
H        3.4443288043    2.5465785765   -1.1549424767
C       -4.0575304807   -0.9813194787    1.7714581733
H       -4.7609159896   -0.2041733975    2.0923323858
H       -4.6396796405   -1.8179558299    1.3680934934
H       -3.5297495680   -1.3401855230    2.6629270734
28   
Iteration 14 Energy -0.17678998
C       -3.0937135241   -0.4440698403    0.7279888964
C       -3.5630453825    0.2180484729   -0.4116581454
C       -2.6393540336    0.7024012921   -1.3456857252
N       -1.3105891961    0.5615089196   -1.2017196541
C       -0.8458376601   -0.0694253605   -0.1195478283
C       -1.7054012561   -0.5867808517    0.8679101137
N        0.5434810629   -0.1592242251   -0.0703622002
C        1.3967660816   -0.7002685824    0.8504851281
O        1.0249969167   -1.2436533434    1.8693408480
C        2.8816185452   -0.5747586142    0.5400889846
C        3.3684486262   -0.7320906521   -0.8934838426
C        3.5086768308    0.6034608635   -0.2006591310
C        2.7509859147    1.8380994396   -0.6865520396
H        3.5053542214   -1.0304603173    1.3036355853
H        4.5048947676    0.8734751375    0.1447874287
H       -4.6255842944    0.3588219950   -0.5779966815
H       -2.9750023760    1.2219091232   -2.2417102055
H       -1.3122179393   -1.0961017063    1.7374609030
H        0.9688487144    0.2725700758   -0.8657847113
H        4.2745898067   -1.3110739707   -1.0566324131
H        2.6326458925   -0.8274028506   -1.6887989151
H        1.9935425348    1.5998779154   -1.4417182033
H        2.2594565896    2.3501074040    0.1497244023
H        3.4439342938    2.5509019297   -1.1494452629
C       -4.0573970644   -0.9882161569    1.7678614652
H       -4.7632457831   -0.2138867497    2.0901369063
H       -4.6368129961   -1.8250265984    1.3609420639
H       -3.5300348992   -1.3485430576    2.6589905524
28   
Iteration 15 Energy -0.17679301
C       -3.0939179187   -0.4458568579    0.7274583700
C       -3.5629188909    0.2215311375   -0.4092228448
C       -2.6391505103    0.7102812991   -1.3408993596
N       -1.3103595324    0.5689695524   -1.1972967552
C       -0.8456727630   -0.0662906629   -0.1176451175
C       -1.7055667600   -0.5887741369    0.8668209663
N        0.5436158017   -0.1568054589   -0.0689205592
C        1.3966296922   -0.6938114292    0.8545799036
O        1.0251562424   -1.2313892681    1.8765862290
C        2.8815005624   -0.5710620931    0.5429813126
C        3.3668352378   -0.7361939779   -0.8901846201
C        3.5094745604    0.6026408565   -0.2040614277
C        2.7522878948    1.8361715519   -0.6934958346
H        3.5057913139   -1.0219439967    1.3089412748
H        4.5057949442    0.8733431833    0.1405530476
H       -4.6254340051    0.3628810328   -0.5752120746
H       -2.9747317706    1.2336683781   -2.2346886829
H       -1.3125454633   -1.1025897937    1.7337830656
H        0.9690980650    0.2720940845   -0.8658842800
H        4.2714051581   -1.3184599108   -1.0503303236
H        2.6301161647   -0.8351085281   -1.6842065694
H        2.0001840008    1.5966881413   -1.4536349991
H        2.2544801556    2.3465600915    0.1400678985
H        3.4466206724    2.5509250575   -1.1512826752
C       -4.0577220123   -0.9951378339    1.7645710754
H       -4.7653326325   -0.2231519141    2.0886047414
H       -4.6350209304   -1.8318416264    1.3544404794
H       -3.5306129330   -1.3571374371    2.6551760935
28   
Iteration 16 Energy -0.17679704
C       -3.0944292311   -0.4490492395    0.7263926589
C       -3.5628809423    0.2276254026   -0.4049837569
C       -2.6388981931    0.7238182131   -1.3325116538
N       -1.3101080057    0.5814576402   -1.1895762209
C       -0.8457168878   -0.0615047664   -0.1143825700
C       -1.7060843549   -0.5927488593    0.8649582996
N        0.5435009799   -0.1534941394   -0.0664648988
C        1.3962651774   -0.6833419741    0.8614335639
O        1.0250658256   -1.2113574999    1.8884774390
C        2.8811557969   -0.5646602134    0.5482698778
C        3.3647857558   -0.7427001565   -0.8839245429
C        3.5106634148    0.6015334385   -0.2089779863
C        2.7547387491    1.8329441809   -0.7055431564
H        3.5059887163   -1.0076218751    1.3184085414
H        4.5073429702    0.8733307219    0.1337390875
H       -4.6253392069    0.3702132596   -0.5702641725
H       -2.9742550632    1.2540684232   -2.2223311780
H       -1.3133663575   -1.1144496458    1.7273255999
H        0.9690776582    0.2708063688   -0.8658755900
H        4.2672577396   -1.3295454869   -1.0390977438
H        2.6272743302   -0.8468523402   -1.6765319664
H        2.0070941955    1.5905194459   -1.4691564983
H        2.2520969444    2.3451608192    0.1240020589
H        3.4507589678    2.5474054346   -1.1612240141
C       -4.0585565168   -1.0070059483    1.7586106258
H       -4.7685197307   -0.2387229264    2.0862849002
H       -4.6329718380   -1.8427879402    1.3426001003
H       -3.5319366487   -1.3728413045    2.6479415937
28   
Iteration 17 Energy -0.17681282
C       -3.0962134134   -0.4621790140    0.7214143842
C       -3.5621811844    0.2554354770   -0.3854221658
C       -2.6368567023    0.7833823466   -1.2939195929
N       -1.3082109548    0.6353132530   -1.1543194222
C       -0.8455638020   -0.0419803533   -0.0996996684
C       -1.7080440294   -0.6107186521    0.8563963719
N        0.5432328304   -0.1414358731   -0.0555526040
C        1.3953688961   -0.6392120700    0.8906310194
O        1.0250007482   -1.1258714668    1.9381034989
C        2.8802626623   -0.5367816949    0.5715596416
C        3.3580841138   -0.7695470543   -0.8547023935
C        3.5145778498    0.5972457641   -0.2287117798
C        2.7621754709    1.8166970709   -0.7586772297
H        3.5068162252   -0.9463961061    1.3586037879
H        4.5129021484    0.8753483531    0.1040467621
H       -4.6243084671    0.4043114518   -0.5472036005
H       -2.9708669998    1.3440177093   -2.1654319589
H       -1.3168389354   -1.1671476110    1.6974710693
H        0.9690365178    0.2641652050   -0.8645966074
H        4.2537368482   -1.3719493159   -0.9882178748
H        2.6182976285   -0.8967161809   -1.6417812037
H        2.0307107816    1.5577502305   -1.5325339549
H        2.2419479691    2.3401041310    0.0528967464
H        3.4632441209    2.5279302056   -1.2116802626
C       -4.0620456451   -1.0574210896    1.7311075104
H       -4.7811863232   -0.3050332009    2.0752634726
H       -4.6252330265   -1.8871858669    1.2885699881
H       -3.5378413788   -1.4419276540    2.6139844637
28   
Iteration 18 Energy -0.17665513
C       -3.1000830861   -0.4993142038    0.7040785171
C       -3.5599382484    0.3378141917   -0.3179903753
C       -2.6312428600    0.9576557625   -1.1630131546
N       -1.3029805283    0.7916322186   -1.0371808936
C       -0.8447623366    0.0128017970   -0.0532411065
C       -1.7123766956   -0.6633011727    0.8248112658
N        0.5422296028   -0.1106140083   -0.0239549737
C        1.3942466343   -0.5055119218    0.9698192742
O        1.0268989803   -0.8646836784    2.0683684161
C        2.8789091403   -0.4487120348    0.6374845708
C        3.3411720912   -0.8423675412   -0.7582516222
C        3.5233783133    0.5818235053   -0.2841330393
C        2.7784320753    1.7558929266   -0.9166726171
H        3.5107357510   -0.7551120595    1.4662292250
H        4.5261808619    0.8803099421    0.0159911333
H       -4.6211710128    0.5061130748   -0.4658428679
H       -2.9619259699    1.6074846163   -1.9715803773
H       -1.3240450067   -1.3196114677    1.5920976642
H        0.9663071427    0.2400696881   -0.8593285049
H        4.2197934551   -1.4801567152   -0.8225826951
H        2.5961973929   -1.0394340764   -1.5257062143
H        2.0913093569    1.4395118723   -1.7097067729
H        2.2118887678    2.3154241267   -0.1620588060
H        3.4894381333    2.4554671565   -1.3723986305
C       -4.0699560215   -1.2021251803    1.6383873132
H       -4.8144680683   -0.4995034522    2.0305265475
H       -4.6012221468   -2.0059214189    1.1157624274
H       -3.5529428153   -1.6454375498    2.4976847377
28   
Iteration 19 Energy -0.17682227
C       -3.0984750790   -0.4814788033    0.7130431411
C       -3.5616801952    0.2969876918   -0.3530176392
C       -2.6349108871    0.8718593682   -1.2311890581
N       -1.3064048800    0.7148167066   -1.0984575262
C       -0.8457515197   -0.0140693168   -0.0779954023
C       -1.7104966240   -0.6377661144    0.8408762318
N        0.5421644956   -0.1257585719   -0.0407609865
C        1.3933807659   -0.5730781311    0.9311282792
O        1.0234375938   -0.9969013520    2.0056090179