28   
Iteration 0 Energy -0.17640739
C       -3.0050460100   -0.5967045300    0.8565887200
C       -3.6297618000    0.6113510500    0.5288538500
C       -2.8388716700    1.7000011100    0.1933474900
N       -1.5068316100    1.6716524200    0.1634563200
C       -0.9184824600    0.5163932800    0.4792734100
C       -1.6153156600   -0.6438119800    0.8329834800
N        0.4730721500    0.5854332400    0.4172208500
C        1.4058151500   -0.3909733100    0.6549982000
O        1.1295253700   -1.5381443900    0.9610144600
C        2.8195726300    0.1030522000    0.5018616400
C        3.8045715700   -0.6679875100   -0.3127453100
C        3.3342942600    0.6776782900   -0.7982821400
C        2.4718479900    0.7640496000   -2.0322671100
H        3.1944387100    0.5675651900    1.4133498200
H        4.0436481700    1.4960080600   -0.6864851500
H       -4.7122738100    0.7008430200    0.5363628900
H       -3.2952018200    2.6538084000   -0.0658901000
H       -1.0650018600   -1.5434771400    1.0764471900
H        0.8071438500    1.5017595300    0.1496338500
H        4.8162448300   -0.7735120000    0.0666868900
H        3.4241866000   -1.5446221600   -0.8309442100
H        1.7833444300   -0.0849837700   -2.1019309800
H        1.8699857200    1.6803364800   -2.0535716200
H        3.0969575500    0.7585830600   -2.9320599700
C       -3.8093812200   -1.8130437000    1.2099024900
H       -4.5737364500   -1.5777266900    1.9583164500
H       -4.3299066500   -2.2024167600    0.3267704600
H       -3.1748381200   -2.6109057900    1.6047139800
28   
Iteration 1 Energy -0.17786707
C       -3.0479859181   -0.5925991994    0.8546926511
C       -3.6207050404    0.6364193572    0.5140003982
C       -2.7807643778    1.6913913658    0.1840799230
N       -1.4486507494    1.6065934602    0.1726472452
C       -0.8969096638    0.4347859633    0.4993613911
C       -1.6586327165   -0.6908251851    0.8480611020
N        0.4997820329    0.4664438038    0.4498135038
C        1.4819837324   -0.4645302660    0.6784854178
O        1.3135499407   -1.6292466622    0.9896815475
C        2.8578204616    0.1207018325    0.5017602843
C        3.8779963868   -0.5878435782   -0.3297606474
C        3.3120442466    0.7251729665   -0.8086013392
C        2.4245530190    0.7539257195   -2.0304054229
H        3.2172198539    0.6105355112    1.4053404819
H        3.9677200503    1.5886838671   -0.7107559521
H       -4.6984617439    0.7693289208    0.5068077533
H       -3.1939501970    2.6618994944   -0.0854161205
H       -1.1611319621   -1.6154028892    1.1043752500
H        0.8234837021    1.3837053232    0.1797830582
H        4.9009679040   -0.6259712472    0.0326509587
H        3.5474447043   -1.4890080524   -0.8405435835
H        1.7908196201   -0.1378765575   -2.0896061253
H        1.7651831977    1.6299544255   -2.0403744417
H        3.0337621614    0.7880404967   -2.9405920296
C       -3.9043620041   -1.7771768420    1.2037899412
H       -4.6680588544   -1.5086307460    1.9418568600
H       -4.4283607579   -2.1505364073    0.3159007970
H       -3.3063571825   -2.5977296797    1.6105729506
28   
Iteration 2 Energy -0.17958163
C       -3.0456978086   -0.5997263889    0.8585456971
C       -3.6345665293    0.6226495332    0.5199885800
C       -2.8181575597    1.7015804485    0.1851936630
N       -1.4807395564    1.6313886506    0.1707380228
C       -0.8969622311    0.4730626745    0.4926096059
C       -1.6499986671   -0.6612486097    0.8421344223
N        0.4969880088    0.5184492328    0.4406052873
C        1.4601617499   -0.4266078243    0.6731905666
O        1.2502813406   -1.5834467336    0.9812390331
C        2.8548959812    0.1163392964    0.5051856478
C        3.8581320678   -0.6295858073   -0.3242116091
C        3.3343163351    0.7050543351   -0.8064580643
C        2.4542172124    0.7655409662   -2.0401789492
H        3.2266000822    0.5957404662    1.4073439601
H        4.0144237163    1.5493586191   -0.7103482929
H       -4.7137334923    0.7375275487    0.5167585254
H       -3.2503308682    2.6645560116   -0.0817392979
H       -1.1452812969   -1.5823736080    1.0972053547
H        0.8239076355    1.4309955750    0.1729046486
H        4.8784906603   -0.6973647933    0.0434127914
H        3.5040781746   -1.5221730720   -0.8355832118
H        1.7898883892   -0.1039434151   -2.1091185528
H        1.8272140491    1.6650932148   -2.0475335850
H        3.0702903906    0.7820943205   -2.9466504534
C       -3.8839393350   -1.8036093021    1.2124539508
H       -4.6478206490   -1.5472431314    1.9552417133
H       -4.4048825315   -2.1857187047    0.3267048900
H       -3.2717754274   -2.6161842725    1.6179714732
28   
Iteration 3 Energy -0.17995658
C       -3.0074860369   -0.5938279204    0.8415020702
C       -3.6388618751    0.6084921617    0.5017431079
C       -2.8413737394    1.7154383347    0.1773493564
N       -1.4969090129    1.6673929737    0.1776165825
C       -0.8927447177    0.5197937468    0.4998314022
C       -1.6038948496   -0.6475022130    0.8406214645
N        0.4972873231    0.5798424784    0.4659531164
C        1.4371227685   -0.3803071258    0.7024884834
O        1.1982825750   -1.5340295002    0.9906349314
C        2.8484662714    0.1159916166    0.5263789202
C        3.8143089652   -0.6824746788   -0.3218236155
C        3.3275359070    0.6738500828   -0.8024916088
C        2.4373606881    0.7689391617   -2.0403551485
H        3.2547523387    0.5877004393    1.4147276284
H        4.0343242510    1.4989570427   -0.7428890133
H       -4.7197537123    0.6927146355    0.4871879465
H       -3.2929108636    2.6689626292   -0.0916858873
H       -1.1009353813   -1.5698029243    1.0988594849
H        0.8325291318    1.4874002526    0.2130460689
H        4.8401164252   -0.7706678362    0.0288714235
H        3.4304132040   -1.5717048540   -0.8189570037
H        1.7358611814   -0.0721445663   -2.1099539414
H        1.8533622123    1.6969794777   -2.0294062502
H        3.0455052583    0.7655315398   -2.9529012539
C       -3.8347165600   -1.8186474560    1.1971929265
H       -4.6022059367   -1.5704505810    1.9398291797
H       -4.3419931925   -2.2151134792    0.3101586656
H       -3.2134427811   -2.6211079868    1.6140773791
28   
Iteration 4 Energy -0.18039851
C       -3.0255440615   -0.6012813585    0.8411806469
C       -3.6343736490    0.6101144826    0.4941395456
C       -2.8275978964    1.7094877426    0.1734963893
N       -1.4840703014    1.6687683289    0.1768385276
C       -0.8854635187    0.5199923022    0.5031178164
C       -1.6225874747   -0.6316324991    0.8386075797
N        0.5063672930    0.5679542749    0.4782575357
C        1.4529102015   -0.3886582526    0.7102832966
O        1.2188628945   -1.5452269687    0.9930939827
C        2.8600609248    0.1167436978    0.5279086815
C        3.8247944044   -0.6739291453   -0.3293503410
C        3.3245953948    0.6775204127   -0.8036881682
C        2.4269632793    0.7668681925   -2.0348635739
H        3.2700075414    0.5901643972    1.4145174055
H        4.0272481875    1.5068817164   -0.7532193423
H       -4.7143747525    0.7068435906    0.4711389063
H       -3.2767109121    2.6631594839   -0.0989432392
H       -1.1202447760   -1.5536024752    1.1002065361
H        0.8443309876    1.4771395649    0.2293467062
H        4.8545003152   -0.7508802898    0.0113626224
H        3.4453073805   -1.5662660958   -0.8236756227
H        1.7329867995   -0.0803970157   -2.0994843477
H        1.8348734477    1.6896859145   -2.0193985805
H        3.0292665003    0.7702255921   -2.9510945120
C       -3.8525454656   -1.8247204690    1.1980841046
H       -4.6211931074   -1.5752226741    1.9388500458
H       -4.3566136322   -2.2253584547    0.3110048851
H       -3.2317561678   -2.6241685122    1.6198890043
28   
Iteration 5 Energy -0.18041803
C       -3.0251370900   -0.6005294426    0.8428967222
C       -3.6248871778    0.6129209074    0.4900338313
C       -2.8214154590    1.7115311502    0.1640508726
N       -1.4792467225    1.6493684629    0.1739221962
C       -0.8860592979    0.4992491903    0.5066156045
C       -1.6240337246   -0.6499128930    0.8477653930
N        0.5065283822    0.5507313852    0.4814332875
C        1.4592454145   -0.4024551073    0.7079142592
O        1.2346413283   -1.5615195681    0.9895515651
C        2.8622354072    0.1149638486    0.5261643633
C        3.8339751325   -0.6612510412   -0.3346767233
C        3.3204836469    0.6862287122   -0.8026914049
C        2.4224432643    0.7705000349   -2.0323516602
H        3.2676859229    0.5879545939    1.4154706422
H        4.0176122534    1.5201108979   -0.7489752812
H       -4.7048722697    0.7115104617    0.4668184487
H       -3.2632694805    2.6671808318   -0.1132640489
H       -1.1275604593   -1.5727516259    1.1158310973
H        0.8405282362    1.4622198670    0.2321419155
H        4.8650591807   -0.7286859159    0.0033552492
H        3.4626311881   -1.5549533912   -0.8324540843
H        1.7393541058   -0.0851590327   -2.0996156786
H        1.8181764607    1.6853647987   -2.0147977986
H        3.0249030335    0.7848856817   -2.9482854231
C       -3.8644138201   -1.8135742384    1.2010588830
H       -4.6336896416   -1.5541269493    1.9376127532
H       -4.3685163852   -2.2132559434    0.3135233859
H       -3.2524016055   -2.6163402654    1.6285581151
28   
Iteration 6 Energy -0.18045845
C       -3.0251142358   -0.5964809215    0.8427114985
C       -3.6364543763    0.6105170367    0.4869773575
C       -2.8255794350    1.7038489144    0.1599920177
N       -1.4828180218    1.6506920228    0.1694545697
C       -0.8842638739    0.5045565369    0.5055850950
C       -1.6234836377   -0.6430193767    0.8494343945
N        0.5080065431    0.5577732698    0.4823017064
C        1.4557184262   -0.4007202665    0.7057039376
O        1.2255123049   -1.5596692991    0.9829121263
C        2.8615955132    0.1100291612    0.5267676933
C        3.8301212757   -0.6679256533   -0.3370240865
C        3.3224542236    0.6836706003   -0.8003803761
C        2.4256230281    0.7759363006   -2.0309022643
H        3.2690822243    0.5777398366    1.4177691989
H        4.0245105251    1.5132951612   -0.7452151884
H       -4.7165275793    0.7072440264    0.4625692824
H       -3.2674509313    2.6584902960   -0.1207629462
H       -1.1269844721   -1.5646101528    1.1216239910
H        0.8437933258    1.4687983632    0.2347188989
H        4.8614215416   -0.7398732488   -0.0004138615
H        3.4551265877   -1.5586706792   -0.8374579812
H        1.7399332103   -0.0773681266   -2.1024324609
H        1.8241770338    1.6925920452   -2.0098073289
H        3.0289333216    0.7924776366   -2.9462716409
C       -3.8579288094   -1.8133101417    1.2049046987
H       -4.6286103507   -1.5556831824    1.9406663223
H       -4.3593308507   -2.2190381907    0.3186011557
H       -3.2414626900   -2.6110865402    1.6355807081
28   
Iteration 7 Energy -0.18048216
C       -3.0231661322   -0.5997602071    0.8439577045
C       -3.6300734074    0.6075695396    0.4805742702
C       -2.8227972690    1.7033696123    0.1502625565
N       -1.4796015361    1.6562117795    0.1619347152
C       -0.8849578255    0.5101417388    0.5042554987
C       -1.6206573436   -0.6385454492    0.8519662228
N        0.5069702282    0.5599957201    0.4860109962
C        1.4523570509   -0.4010394781    0.7051302750
O        1.2179227249   -1.5606748543    0.9753395821
C        2.8599993261    0.1055263578    0.5282936527
C        3.8251460632   -0.6728173027   -0.3402583549
C        3.3209558552    0.6826333264   -0.7975558348
C        2.4234851303    0.7826737191   -2.0278698451
H        3.2701983471    0.5679862515    1.4205820931
H        4.0264784604    1.5092565432   -0.7420422377
H       -4.7100434633    0.7036528323    0.4526900793
H       -3.2683791891    2.6549050442   -0.1351375250
H       -1.1203589084   -1.5568669290    1.1290070487
H        0.8453881570    1.4704512914    0.2415602978
H        4.8571751335   -0.7480521284   -0.0063669334
H        3.4471317562   -1.5609472022   -0.8431793874
H        1.7361001260   -0.0689941236   -2.1037460248
H        1.8239804716    1.7004453371   -2.0009133210
H        3.0262791428    0.8031654407   -2.9435431358
C       -3.8560629635   -1.8161771935    1.2106310192
H       -4.6285346844   -1.5554182880    1.9434693315
H       -4.3547241238   -2.2271464411    0.3252171215
H       -3.2402113144   -2.6113396666    1.6473365606
28   
Iteration 8 Energy -0.18050317
C       -3.0243075202   -0.5992146680    0.8457297685
C       -3.6294403113    0.6066664732    0.4753484470
C       -2.8212877874    1.7001093453    0.1408817650
N       -1.4784129292    1.6488909734    0.1557328610
C       -0.8842489697    0.5042788439    0.5040387580
C       -1.6223033132   -0.6412829006    0.8567405296
N        0.5079176631    0.5546644359    0.4877293627
C        1.4537620011   -0.4074136163    0.7018689273
O        1.2201085022   -1.5685802372    0.9665561140
C        2.8609471142    0.1012210519    0.5274821582
C        3.8269496643   -0.6711609103   -0.3448003775
C        3.3209096188    0.6855322770   -0.7954023905
C        2.4234695293    0.7897323116   -2.0249314257
H        3.2705223692    0.5595106880    1.4223270404
H        4.0262728459    1.5120562829   -0.7362250226
H       -4.7093532581    0.7033088122    0.4454978891
H       -3.2646183643    2.6510672555   -0.1498921299
H       -1.1240412285   -1.5587310030    1.1400839898
H        0.8461615760    1.4659758136    0.2452750393
H        4.8593785156   -0.7462858918   -0.0122667745
H        3.4499162833   -1.5573741369   -0.8517477518
H        1.7387839945   -0.0636326428   -2.1054147552
H        1.8209148114    1.7053563070   -1.9933256257
H        3.0263278490    0.8171405568   -2.9403561891
C       -3.8593430908   -1.8121874694    1.2172225410
H       -4.6330096481   -1.5465305446    1.9469974352
H       -4.3567290719   -2.2273571891    0.3330384256
H       -3.2452470359   -2.6055550315    1.6594177377
28   
Iteration 9 Energy -0.18052083
C       -3.0251809905   -0.5986823721    0.8484530641
C       -3.6293253051    0.6043706155    0.4676922731
C       -2.8197204480    1.6945718917    0.1269773331
N       -1.4770428735    1.6415641924    0.1454594509
C       -0.8836388836    0.4993032548    0.5028167794
C       -1.6234709881   -0.6426551190    0.8631960955
N        0.5086523937    0.5498047840    0.4898857709
C        1.4537593242   -0.4147157706    0.6969153382
O        1.2191789362   -1.5777165257    0.9528779326
C        2.8612743343    0.0943541765    0.5265582540
C        3.8271906790   -0.6715480348   -0.3510577510
C        3.3213968133    0.6883058661   -0.7919147635
C        2.4243838140    0.8009906538   -2.0207660576
H        3.2707550091    0.5456890493    1.4250242612
H        4.0278001674    1.5135245050   -0.7270843078
H       -4.7091541572    0.7012261583    0.4349205896
H       -3.2613263044    2.6438798964   -0.1717026101
H       -1.1266821762   -1.5580524292    1.1555776624
H        0.8475327564    1.4618451431    0.2506314903
H        4.8598850044   -0.7488370337   -0.0199076452
H        3.4499495852   -1.5541465778   -0.8640961373
H        1.7414933758   -0.0530733304   -2.1085964435
H        1.8197687388    1.7149814369   -1.9819821647
H        3.0275809972    0.8373169546   -2.9356457139
C       -3.8617151925   -1.8079839002    1.2274732622
H       -4.6373006052   -1.5360790721    1.9528797078
H       -4.3568968193   -2.2300747887    0.3453239474
H       -3.2491473897   -2.5979584824    1.6776968547
28   
Iteration 10 Energy -0.18054522
C       -3.0259922528   -0.5982537408    0.8523410248
C       -3.6288825105    0.6006320599    0.4568575944
C       -2.8176360462    1.6866353578    0.1071918169
N       -1.4751240898    1.6326174456    0.1304351658
C       -0.8828423285    0.4938191705    0.5006048748
C       -1.6245121426   -0.6433744702    0.8719220217
N        0.5095217824    0.5441585103    0.4926290388
C        1.4528732634   -0.4242010869    0.6898529259
O        1.2164383003   -1.5895598502    0.9333136584
C        2.8611985697    0.0844925634    0.5253006698
C        3.8264118204   -0.6732582212   -0.3597331108
C        3.3222166732    0.6915095138   -0.7868588833
C        2.4257819553    0.8172217964   -2.0147100374
H        3.2709079574    0.5257660089    1.4286739046
H        4.0303727697    1.5145464683   -0.7138800302
H       -4.7085895415    0.6974852045    0.4199540145
H       -3.2575776029    2.6331468762   -0.2026110474
H       -1.1290618157   -1.5554131607    1.1768696573
H        0.8497352969    1.4569831294    0.2580613572
H        4.8592617631   -0.7546999203   -0.0301009543
H        3.4481699362   -1.5503253318   -0.8814405834
H        1.7443252626   -0.0368587074   -2.1128970609
H        1.8195003872    1.7296166008   -1.9656560227
H        3.0294057713    0.8653417989   -2.9287565118
C       -3.8640925710   -1.8028080766    1.2421525780
H       -4.6423816455   -1.5224702401    1.9614164408
H       -4.3561166048   -2.2348992503    0.3630778362
H       -3.2533125919   -2.5876454588    1.7035960948
28   
Iteration 11 Energy -0.18058010
C       -3.0269621570   -0.5975477280    0.8578715832
C       -3.6285579597    0.5949591847    0.4417108525
C       -2.8148877321    1.6748362800    0.0793433214
N       -1.4725852507    1.6201698427    0.1089694993
C       -0.8816931261    0.4865889969    0.4971417472
C       -1.6257691053   -0.6437601747    0.8840125479
N        0.5107040103    0.5367593724    0.4960994465
C        1.4511155545   -0.4372027105    0.6794933789
O        1.2118995833   -1.6056222766    0.9052127911
C        2.8607413963    0.0704248275    0.5232701575
C        3.8247969321   -0.6760730603   -0.3718975033
C        3.3235564086    0.6956910602   -0.7796234389
C        2.4280553316    0.8402898923   -2.0058887436
H        3.2707819561    0.4972309380    1.4334377416
H        4.0343327356    1.5153279266   -0.6947952647
H       -4.7080849958    0.6915848320    0.3991269590
H       -3.2526944350    2.6170822789   -0.2460919365
H       -1.1319722112   -1.5506696855    1.2065826295
H        0.8529568728    1.4505279592    0.2680881580
H        4.8576986580   -0.7640385854   -0.0441324365
H        3.4448074508   -1.5449549591   -0.9058938614
H        1.7481366392   -0.0132062471   -2.1188100746
H        1.8199347506    1.7505706204   -1.9423726464
H        3.0323478311    0.9047166727   -2.9184816790
C       -3.8668608509   -1.7954690041    1.2630341936
H       -4.6489412547   -1.5035670724    1.9735221512
H       -4.3545122896   -2.2417547941    0.3886202362
H       -3.2583450260   -2.5726896285    1.7400565268
28   
Iteration 12 Energy -0.18060703
C       -3.0259480677   -0.5954483022    0.8659238300
C       -3.6323029870    0.5848799390    0.4217161913
C       -2.8147891794    1.6558903434    0.0410534696
N       -1.4723166550    1.6079720707    0.0762957338
C       -0.8798559549    0.4836749704    0.4889852488
C       -1.6246043043   -0.6381680569    0.8987824878
N        0.5121405706    0.5342722536    0.4975205303
C        1.4427928520   -0.4517529962    0.6624559640
O        1.1975942328   -1.6235056536    0.8630049207
C        2.8561405583    0.0489424150    0.5194967665
C        3.8165682742   -0.6858365366   -0.3872688953
C        3.3270630481    0.6983212140   -0.7687275987
C        2.4343238058    0.8741896610   -1.9929162982
H        3.2668396983    0.4533666581    1.4393863761
H        4.0438817546    1.5102966664   -0.6637911073
H       -4.7117327059    0.6787688029    0.3724788544
H       -3.2524773140    2.5905432489   -0.3057492734
H       -1.1297829291   -1.5359896147    1.2451427152
H        0.8597109032    1.4477689095    0.2780763003
H        4.8479502685   -0.7901397149   -0.0592998968
H        3.4303535490   -1.5406538591   -0.9393690454
H        1.7518585226    0.0257355120   -2.1274603706
H        1.8284599823    1.7843544102   -1.9092276043
H        3.0404511471    0.9582903792   -2.9027095662
C       -3.8629113575   -1.7871313188    1.2938076556
H       -4.6509834320   -1.4823852121    1.9922195770
H       -4.3444340598   -2.2544576627    0.4270221561
H       -3.2539905172   -2.5515939959    1.7907566889
28   
Iteration 13 Energy -0.18067122
C       -3.0294715188   -0.5952775978    0.8733643690
C       -3.6287213543    0.5772359334    0.4005560101
C       -2.8081213907    1.6391557636    0.0029524755
N       -1.4663756846    1.5850487663    0.0491330198
C       -0.8789439700    0.4675650614    0.4867374360
C       -1.6290358700   -0.6428370739    0.9167950043
N        0.5132054153    0.5173296024    0.5047987416
C        1.4453290827   -0.4709200767    0.6493270424
O        1.1958203368   -1.6458190755    0.8256369191
C        2.8590897102    0.0314372743    0.5160573969
C        3.8191493334   -0.6847074440   -0.4058165758
C        3.3286413024    0.7059805624   -0.7595410869
C        2.4361483149    0.9044662101   -1.9800403523
H        3.2702430991    0.4171004005    1.4439203594
H        4.0472482608    1.5145445062   -0.6411333683
H       -4.7076911918    0.6722633790    0.3428147758
H       -3.2405599957    2.5679900670   -0.3653894910
H       -1.1390664326   -1.5335809361    1.2873730456
H        0.8609848795    1.4333110824    0.2947615057
H        4.8516165936   -0.7930328404   -0.0828151383
H        3.4330514172   -1.5292315937   -0.9735093033
H        1.7588457914    0.0552571812   -2.1340153198
H        1.8246828866    1.8088516822   -1.8767229578
H        3.0425425209    1.0127362775   -2.8870636159
C       -3.8732927998   -1.7743019161    1.3212315413
H       -4.6656856321   -1.4517577840    2.0065862581
H       -4.3492169955   -2.2599101303    0.4614154767
H       -3.2704164320   -2.5286929222    1.8401918273
28   
Iteration 14 Energy -0.18071937
C       -3.0293554739   -0.5937059235    0.8829419941
C       -3.6257667096    0.5638021358    0.3711641818
C       -2.8017902015    1.6138431467   -0.0500694100
N       -1.4605389344    1.5606296726    0.0089205992
C       -0.8755944206    0.4558644505    0.4810801140
C       -1.6295786024   -0.6402743063    0.9393542233
N        0.5161293614    0.5061551367    0.5136884625
C        1.4405469723   -0.4928855364    0.6304427710
O        1.1855044883   -1.6712080016    0.7734891904
C        2.8572080516    0.0045155741    0.5109818249
C        3.8130949260   -0.6907185884   -0.4301416970
C        3.3296855314    0.7116163459   -0.7456884001
C        2.4378618743    0.9469281440   -1.9598720892
H        3.2704789678    0.3616144817    1.4493092165
H        4.0542092269    1.5115472556   -0.6065082326
H       -4.7042893131    0.6565202842    0.3021454891
H       -3.2308134883    2.5319635059   -0.4480708859
H       -1.1415634075   -1.5184006356    1.3417303219
H        0.8682686425    1.4233561370    0.3164911200
H        4.8457734419   -0.8124105015   -0.1126668853
H        3.4220429145   -1.5178652457   -1.0196200851
H        1.7624547461    0.1015903705   -2.1411493969
H        1.8240328091    1.8460881252   -1.8286816192
H        3.0446635190    1.0853530150   -2.8624992553
C       -3.8761485393   -1.7591111814    1.3588310421
H       -4.6761114160   -1.4165981392    2.0254285164
H       -4.3428340679   -2.2718513740    0.5097577704
H       -3.2775712920   -2.4961539469    1.9068163676
28   
Iteration 15 Energy -0.18075296
C       -3.0209659270   -0.5940549828    0.8928850128
C       -3.6026450007    0.5429723653    0.3230448407
C       -2.7855866988    1.5841533757   -0.1315915163
N       -1.4459367047    1.5287063300   -0.0428713083
C       -0.8673151492    0.4460214335    0.4843188454
C       -1.6231757257   -0.6327939421    0.9755565053
N        0.5228461013    0.4972685821    0.5478619359
C        1.4348728272   -0.5175052597    0.6199193752
O        1.1676488531   -1.6975359053    0.7234827899
C        2.8563317007   -0.0324331219    0.5066877476
C        3.7962752182   -0.7014220197   -0.4709099384
C        3.3216170021    0.7145397706   -0.7289197419
C        2.4218100022    1.0009215768   -1.9258403966
H        3.2824499878    0.2858756360    1.4535754915
H        4.0577473661    1.5009341587   -0.5739439489
H       -4.6804031377    0.6270537146    0.2321222233
H       -3.2113222148    2.4830779865   -0.5743893835
H       -1.1326795794   -1.4915608910    1.4158829471
H        0.8827365605    1.4163339148    0.3714598310
H        4.8325075429   -0.8381411929   -0.1722881378
H        3.3929112888   -1.5043721661   -1.0847160426
H        1.7495918900    0.1610272649   -2.1400417051
H        1.8045492349    1.8902257336   -1.7510259482
H        3.0226081088    1.1830720319   -2.8246275554
C       -3.8762034720   -1.7400151928    1.3999709160
H       -4.6907850565   -1.3712941236    2.0339472040
H       -4.3214604422   -2.2920609542    0.5641077414
H       -3.2880251267   -2.4487868958    1.9939416868
28   
Iteration 16 Energy -0.18085775
C       -3.0245777094   -0.5895339056    0.9078997805
C       -3.6088186807    0.5179393384    0.2836413128
C       -2.7784026626    1.5338901776   -0.2033962875
N       -1.4394835527    1.4884027786   -0.1014393505
C       -0.8659954113    0.4277442062    0.4741857269
C       -1.6277063380   -0.6264860849    1.0073641365
N        0.5224146139    0.4784975962    0.5584964572
C        1.4294123451   -0.5421042400    0.5879952994
O        1.1396301273   -1.7201519637    0.6447861601
C        2.8564290497   -0.0697419421    0.4933128938
C        3.7885791566   -0.7100979702   -0.5079988034
C        3.3318848618    0.7213592915   -0.7108548804
C        2.4355046090    1.0646996635   -1.8951421754
H        3.2854020802    0.2044740670    1.4524263257
H        4.0785047102    1.4904847790   -0.5231087692
H       -4.6854311937    0.5983096863    0.1779314132
H       -3.1979704621    2.4138534552   -0.6881911180
H       -1.1412403124   -1.4631680369    1.4933527721
H        0.8856704223    1.3990849182    0.3998288310
H        4.8231205343   -0.8727420383   -0.2162712713
H        3.3746178181   -1.4834169654   -1.1522595954
H        1.7621772761    0.2371315471   -2.1506781028
H        1.8185942731    1.9455656750   -1.6807459333
H        3.0387069581    1.2879953463   -2.7830030343
C       -3.8814839952   -1.7138771042    1.4568960531
H       -4.7067959012   -1.3197953106    2.0610970011
H       -4.3142726137   -2.3052979559    0.6416689060
H       -3.2984704292   -2.3928110766    2.0898026410
28   
Iteration 17 Energy -0.18090817
C       -3.0227404450   -0.5923797445    0.8966029294
C       -3.6164409423    0.5359605898    0.3193466651
C       -2.7904095644    1.5700496125   -0.1377492175
N       -1.4498229653    1.5326208380   -0.0551360351
C       -0.8713479507    0.4527059751    0.4775748478
C       -1.6236025869   -0.6249263617    0.9775663444
N        0.5179826048    0.5006250061    0.5440318972
C        1.4301517666   -0.5130381633    0.6116507674
O        1.1469507532   -1.6896832617    0.7103090448
C        2.8552454337   -0.0379875892    0.5021350719
C        3.7904254237   -0.7119356890   -0.4751700916
C        3.3321453266    0.7115234813   -0.7281564754
C        2.4358111903    1.0153295159   -1.9241517341
H        3.2823288561    0.2718616160    1.4508792464
H        4.0725937810    1.4914560731   -0.5620141503
H       -4.6939727007    0.6186064086    0.2268981701
H       -3.2191286725    2.4648153584   -0.5860850247
H       -1.1306413559   -1.4784964943    1.4258849942
H        0.8795363938    1.4187839662    0.3711748048
H        4.8228464036   -0.8662191817   -0.1711615706
H        3.3792440860   -1.5065289252   -1.0950236257
H        1.7548206181    0.1843622769   -2.1466808543
H        1.8275241271    1.9094730370   -1.7425880850
H        3.0390853449    1.1983482466   -2.8212067029
C       -3.8701285133   -1.7402937109    1.4129394492
H       -4.6882874130   -1.3719059261    2.0426723835
H       -4.3122325894   -2.3008506533    0.5811159981
H       -3.2779367315   -2.4420676855    2.0119360003
28   
Iteration 18 Energy -0.18097302
C       -3.0207822056   -0.5928043944    0.9046975839
C       -3.6062507510    0.5200872102    0.2902390777
C       -2.7797876297    1.5442048172   -0.1887298312
N       -1.4398635876    1.5098647847   -0.0928160918
C       -0.8672598101    0.4437563519    0.4726096022
C       -1.6222143356   -0.6196171606    0.9975037888
N        0.5208514416    0.4912092485    0.5555157439
C        1.4251283847   -0.5307063579    0.5970826004
O        1.1367535114   -1.7082452890    0.6661804002
C        2.8529804405   -0.0620727684    0.4967485606
C        3.7811595468   -0.7180749074   -0.5005328093
C        3.3312800159    0.7139846798   -0.7163714885
C        2.4330162019    1.0542972691   -1.9013631628
H        3.2847497563    0.2216159662    1.4515349944
H        4.0764459653    1.4856972995   -0.5337362619
H       -4.6829418906    0.5992539712    0.1857330603
H       -3.2063188608    2.4256686454   -0.6646490519
H       -1.1297445218   -1.4580712913    1.4745798912
H        0.8869717991    1.4102011621    0.3975689823
H        4.8132625586   -0.8859575183   -0.2027485828
H        3.3635980527   -1.4944102905   -1.1389445379
H        1.7508089001    0.2308654932   -2.1469195136
H        1.8261518059    1.9432991800   -1.6919420306
H        3.0347520114    1.2633903709   -2.7937390183
C       -3.8729951684   -1.7261774736    1.4457645087
H       -4.6985626811   -1.3401688915    2.0549351972
H       -4.3042232676   -2.3128046816    0.6263033779
H       -3.2869658038   -2.4080748784    2.0730860199
28   
Iteration 19 Energy -0.18099666
C       -3.0205676351   -0.5927518914    0.9123992364
C       -3.6019341849    0.5060022479    0.2691237163
C       -2.7749883068    1.5207449179   -0.2299036670
N       -1.4352572947    1.4893696952   -0.1262722673
C       -0.8659081142    0.4359814627    0.4652881603
C       -1.6221918760   -0.6148628467    1.0121154772
N        0.5208547244    0.4827534930    0.5604916064
C        1.4206561694   -0.5431979337    0.5818221116
O        1.1223010404   -1.7194092059    0.6263717139