28   
Iteration 0 Energy -0.17291464
C       -3.0469486100   -0.5044544300    0.6486668500
C       -3.5780860300   -0.1721613400   -0.6024513200
C       -2.7058458900    0.0520130800   -1.6566432100
N       -1.3793311800   -0.0268402000   -1.5545897100
C       -0.8805034300   -0.3442326800   -0.3582914300
C       -1.6650395000   -0.5947981900    0.7724429500
N        0.5137000200   -0.3898698000   -0.3555082600
C        1.3677199000   -0.6995572400    0.6722197800
O        0.9890983600   -1.0451972200    1.7809289600
C        2.8287780300   -0.5648952200    0.3845307400
C        3.4457803200   -0.3157999600   -0.9695493000
C        3.4801429100    0.7705275200    0.0540658300
C        2.6916750600    2.0438212900   -0.1066348700
H        3.3926691400   -1.1928706600    1.0669578100
H        4.4369234600    0.9106126000    0.5539229200
H       -4.6511094400   -0.0916820400   -0.7506928100
H       -3.0873093700    0.3105026000   -2.6429748600
H       -1.1853324100   -0.8544414500    1.7069802200
H        0.8974551900   -0.2077126400   -1.2718610000
H        4.3574631000   -0.8577709700   -1.2034385000
H        2.7987492100   -0.1776641100   -1.8336229100
H        1.7345701700    1.8823719700   -0.6107730900
H        2.4765137900    2.4944775200    0.8682136600
H        3.2616028300    2.7700635000   -0.6966035800
C       -3.9426455000   -0.7524050800    1.8267726900
H       -4.4976101200    0.1552343000    2.0912050600
H       -4.6819768300   -1.5288870700    1.6009236400
H       -3.3711010700   -1.0681784200    2.7034004300
28   
Iteration 1 Energy -0.17483829
C       -3.0788006816   -0.4987656034    0.6437361259
C       -3.5548092401   -0.1585953369   -0.6262342417
C       -2.6352857535    0.0551055278   -1.6434717379
N       -1.3136171769   -0.0421052986   -1.4842657958
C       -0.8547194182   -0.3669867675   -0.2725512304
C       -1.7018116839   -0.6064845211    0.8201106501
N        0.5417394504   -0.4264787042   -0.2317778743
C        1.4517072318   -0.7302518161    0.7511102761
O        1.1769413854   -1.0876124562    1.8839402698
C        2.8891007313   -0.5677375878    0.3620027746
C        3.3995250847   -0.3018590134   -1.0336507703
C        3.4876332600    0.7822543538   -0.0066542127
C        2.6637561458    2.0425260359   -0.1023630445
H        3.5153515588   -1.1862371862    0.9973777731
H        4.4748638286    0.9415571689    0.4232759072
H       -4.6193790616   -0.0637994067   -0.8185385646
H       -2.9713121977    0.3196632011   -2.6446316513
H       -1.2776735421   -0.8735277894    1.7773063242
H        0.9151586664   -0.2413693739   -1.1499090683
H        4.3024450207   -0.8243700154   -1.3367969505
H        2.6881078367   -0.1732296848   -1.8468353818
H        1.6756249700    1.8656138868   -0.5369005047
H        2.5116997917    2.4842153475    0.8885805785
H        3.1751035843    2.7828407753   -0.7277113333
C       -4.0251151526   -0.7368446478    1.7865726893
H       -4.5783441356    0.1776476085    2.0301758959
H       -4.7644940046   -1.5038442009    1.5301332052
H       -3.4933943588   -1.0611188480    2.6855665670
28   
Iteration 2 Energy -0.17751698
C       -3.0960032305   -0.5105728602    0.6502486542
C       -3.5698549773   -0.1789709196   -0.6227998509
C       -2.6711996225    0.0494547525   -1.6675142026
N       -1.3421710382   -0.0353726176   -1.5021640734
C       -0.8441191245   -0.3513587167   -0.3020091984
C       -1.7052995050   -0.5919332542    0.7860468207
N        0.5500142275   -0.3998238755   -0.2595928749
C        1.4366714473   -0.6941135447    0.7425165894
O        1.0785969935   -1.0313075503    1.8533677613
C        2.9031292656   -0.5749349813    0.3877634045
C        3.3936393772   -0.3269307366   -1.0269051231
C        3.5135821146    0.7659852798    0.0062992918
C        2.7121841643    2.0559032435   -0.0952055773
H        3.5502947685   -1.1865811889    1.0101368301
H        4.5034298992    0.9376815504    0.4249022306
H       -4.6354490323   -0.0972112975   -0.8085867451
H       -3.0233417947    0.3082026342   -2.6647512117
H       -1.2974725509   -0.8477890433    1.7531451718
H        0.9423481596   -0.2077777955   -1.1610302889
H        4.2928705498   -0.8547855945   -1.3361967042
H        2.6716906616   -0.1920703223   -1.8284287609
H        1.7182576125    1.9128710835   -0.5300274863
H        2.5783304495    2.5049350019    0.8961942916
H        3.2401740748    2.7825175507   -0.7239154783
C       -4.0374128443   -0.7613892493    1.8094846958
H       -4.5990316001    0.1468767754    2.0570204631
H       -4.7649103602   -1.5423641354    1.5595033743
H       -3.4989454521   -1.0789348626    2.7100944892
28   
Iteration 3 Energy -0.17796287
C       -3.0702800322   -0.5205853561    0.6321402441
C       -3.5829594827   -0.1862974061   -0.6266509128
C       -2.6772208490    0.0649194039   -1.6673926302
N       -1.3437302804   -0.0030649563   -1.5033811721
C       -0.8519741204   -0.3255107317   -0.3030030916
C       -1.6780056730   -0.5917295948    0.8079834832
N        0.5393708297   -0.3606634818   -0.2557686007
C        1.3969999606   -0.6525893315    0.7685775583
O        1.0474508606   -0.9742465741    1.8839753722
C        2.8774754268   -0.5744603065    0.4156734839
C        3.3515756425   -0.3597320726   -1.0185708066
C        3.5123299556    0.7458619856    0.0048170833
C        2.7455544693    2.0645903370   -0.1168998044
H        3.5109828474   -1.1947367712    1.0436019942
H        4.5103655327    0.9197842300    0.4023920996
H       -4.6505397102   -0.1195939826   -0.8033112039
H       -3.0312979072    0.3297514622   -2.6623784725
H       -1.2790749537   -0.8448642625    1.7805204753
H        0.9512784255   -0.1390613481   -1.1372952921
H        4.2437736427   -0.8994976458   -1.3296104827
H        2.6241747239   -0.2153030905   -1.8125893652
H        1.7485498442    1.9494778892   -0.5541876612
H        2.6280135725    2.5319182609    0.8686174522
H        3.2952935791    2.7673296968   -0.7545761576
C       -4.0178537818   -0.7990306313    1.7894987224
H       -4.5918597915    0.0987498921    2.0465032754
H       -4.7290542188   -1.5915627511    1.5285261781
H       -3.4793355776   -1.1196476868    2.6903847680
28   
Iteration 4 Energy -0.17849362
C       -3.0964301631   -0.5293415114    0.6444685737
C       -3.5935691965   -0.1852090144   -0.6178981652
C       -2.6882772420    0.0751201585   -1.6550255110
N       -1.3535816745    0.0131176055   -1.5087541549
C       -0.8661465480   -0.3171084659   -0.3096737883
C       -1.7015558566   -0.5912851700    0.7900871221
N        0.5249205456   -0.3522723840   -0.2528169069
C        1.3962767733   -0.6440408124    0.7607039355
O        1.0436924810   -0.9603005792    1.8773155688
C        2.8770572571   -0.5655368051    0.4136573151
C        3.3872603829   -0.3623142354   -1.0105336723
C        3.5283728915    0.7475494713    0.0071926034
C        2.7696147165    2.0655556111   -0.1403774816
H        3.4772326720   -1.1935621111    1.0654515173
H        4.5210632335    0.9159421400    0.4203435685
H       -4.6605321250   -0.1177241066   -0.8002370054
H       -3.0482000176    0.3461347752   -2.6462010811
H       -1.2858158298   -0.8504792174    1.7547629835
H        0.9323594632   -0.1173514919   -1.1344308660
H        4.2859047746   -0.9042584659   -1.2968178553
H        2.6841159546   -0.2161067351   -1.8259355338
H        1.7846957777    1.9449965218   -0.6030914539
H        2.6261273425    2.5386935565    0.8385680630
H        3.3367896105    2.7639127053   -0.7671915025
C       -4.0355157544   -0.8197576315    1.8037000993
H       -4.6109361301    0.0739005996    2.0717253246
H       -4.7454851526   -1.6127722577    1.5413661485
H       -3.4894351265   -1.1452969253    2.6972387955
28   
Iteration 5 Energy -0.17857307
C       -3.0866716441   -0.5228025368    0.6440648818
C       -3.5733954728   -0.1773990589   -0.6210715914
C       -2.6732198994    0.0793832572   -1.6617094594
N       -1.3410417268    0.0088305313   -1.5001446387
C       -0.8535866075   -0.3212302462   -0.3006738296
C       -1.6944015442   -0.5919056155    0.7952514706
N        0.5384037549   -0.3597471596   -0.2475348156
C        1.4072167280   -0.6512753955    0.7689738962
O        1.0612822571   -0.9632796485    1.8892181905
C        2.8819203268   -0.5709762851    0.4128029020
C        3.3752720668   -0.3606255135   -1.0137916053
C        3.5158942124    0.7482402123    0.0025563324
C        2.7360244031    2.0525054059   -0.1319067584
H        3.5006801340   -1.1938239735    1.0520101773
H        4.5135400309    0.9234146512    0.4007058023
H       -4.6402880401   -0.1062328474   -0.8037168547
H       -3.0283679523    0.3505158267   -2.6545611814
H       -1.2802409655   -0.8543958342    1.7594756673
H        0.9448892966   -0.1269383292   -1.1314805726
H        4.2764046108   -0.8910536836   -1.3126881853
H        2.6605184371   -0.2192505409   -1.8203670354
H        1.7493215956    1.9126065825   -0.5856114543
H        2.5921878270    2.5191410762    0.8499178621
H        3.2852121722    2.7627712898   -0.7611830157
C       -4.0310224100   -0.8066993526    1.7983539577
H       -4.6028108200    0.0902119512    2.0632855194
H       -4.7445614930   -1.5957780076    1.5341493065
H       -3.4891562478   -1.1340014983    2.6932718073
28   
Iteration 6 Energy -0.17861441
C       -3.0903001417   -0.5243684770    0.6395050499
C       -3.5881124359   -0.1782049183   -0.6210826796
C       -2.6799651839    0.0785277768   -1.6548803616
N       -1.3473710969    0.0088449090   -1.4951869045
C       -0.8561237629   -0.3222574634   -0.2976276791
C       -1.6986084592   -0.5947920117    0.7966720752
N        0.5359430672   -0.3600890958   -0.2462267943
C        1.4080721170   -0.6477721376    0.7684401443
O        1.0524496737   -0.9557635636    1.8866455433
C        2.8841120515   -0.5692011664    0.4155436067
C        3.3781616406   -0.3625524524   -1.0114477279
C        3.5212790891    0.7483115676    0.0026309773
C        2.7478149944    2.0565593720   -0.1360659512
H        3.5032854147   -1.1921518464    1.0543286987
H        4.5202402089    0.9220579560    0.3980765497
H       -4.6550686490   -0.1073527228   -0.8032517487
H       -3.0320866439    0.3510581062   -2.6484316957
H       -1.2890759244   -0.8592407206    1.7621898289
H        0.9407560158   -0.1241376447   -1.1300280037
H        4.2802122836   -0.8924017985   -1.3087364878
H        2.6647290269   -0.2210740680   -1.8191952208
H        1.7638938740    1.9246839519   -0.5976317450
H        2.5996737032    2.5226773180    0.8454014656
H        3.3056373217    2.7647350371   -0.7601155135
C       -4.0321527873   -0.8110229049    1.7952839725
H       -4.6039249654    0.0850403341    2.0630882728
H       -4.7454306396   -1.6003918079    1.5312114072
H       -3.4880368237   -1.1395162806    2.6884877274
28   
Iteration 7 Energy -0.17865364
C       -3.0905979231   -0.5282483988    0.6426849489
C       -3.5841688546   -0.1784271525   -0.6188559289
C       -2.6798189576    0.0832273518   -1.6554343970
N       -1.3467113263    0.0148312480   -1.4980152574
C       -0.8600302192   -0.3197216626   -0.2996999893
C       -1.6978817841   -0.5969267885    0.7972533254
N        0.5316394585   -0.3576994287   -0.2462168676
C        1.4010664734   -0.6431594190    0.7711292623
O        1.0492313878   -0.9489493755    1.8908910602
C        2.8787845137   -0.5667518189    0.4192844750
C        3.3751066111   -0.3669436697   -1.0087794632
C        3.5216054926    0.7472032890    0.0021985278
C        2.7565837133    2.0607955018   -0.1437614721
H        3.4921355129   -1.1914635830    1.0619675856
H        4.5212042831    0.9197980477    0.3965252845
H       -4.6510454480   -0.1079477133   -0.8010620743
H       -3.0350820652    0.3582380561   -2.6471863797
H       -1.2865840446   -0.8631368538    1.7615914073
H        0.9389467165   -0.1183846389   -1.1274657549
H        4.2772619520   -0.8986752149   -1.3027471607
H        2.6642366284   -0.2251984314   -1.8185953604
H        1.7761150139    1.9372661862   -0.6147232349
H        2.6031766487    2.5278998832    0.8365133776
H        3.3247392045    2.7654567748   -0.7625269775
C       -4.0343804564   -0.8193464689    1.7967544997
H       -4.6068716369    0.0756229526    2.0666671981
H       -4.7465818824   -1.6084772987    1.5289588636
H       -3.4920760164   -1.1506761151    2.6902473389
28   
Iteration 8 Energy -0.17867394
C       -3.0894634007   -0.5271535009    0.6426525587
C       -3.5825506673   -0.1735920331   -0.6180111983
C       -2.6769241467    0.0891544715   -1.6530248499
N       -1.3437328884    0.0192658106   -1.4976272110
C       -0.8561976242   -0.3183696028   -0.3005558984
C       -1.6965809550   -0.5970489366    0.7939583839
N        0.5354216077   -0.3586030936   -0.2466255425
C        1.4021763720   -0.6419008144    0.7736526083
O        1.0515962300   -0.9440273967    1.8948443606
C        2.8794009429   -0.5668163288    0.4217715382
C        3.3756609302   -0.3698029532   -1.0064773628
C        3.5188718639    0.7471711572    0.0016221676
C        2.7475449144    2.0562219598   -0.1470042962
H        3.4932111580   -1.1898929026    1.0655601831
H        4.5187239993    0.9237636596    0.3935439257
H       -4.6492679228   -0.1012723096   -0.8005483942
H       -3.0320249430    0.3668989952   -2.6440715675
H       -1.2847244938   -0.8666225509    1.7571594092
H        0.9440428018   -0.1201562757   -1.1276068442
H        4.2797998248   -0.8985096755   -1.2997482717
H        2.6645974847   -0.2313015662   -1.8167096153
H        1.7711245619    1.9252688149   -0.6248049634
H        2.5840739432    2.5205298475    0.8329563536
H        3.3150954978    2.7657154479   -0.7607725497
C       -4.0320685417   -0.8204038808    1.7969077616
H       -4.6032346585    0.0744421443    2.0700244952
H       -4.7455447881   -1.6079219882    1.5277825651
H       -3.4890241338   -1.1548312685    2.6887491280
28   
Iteration 9 Energy -0.17870338
C       -3.0876566740   -0.5266719941    0.6437931871
C       -3.5764020617   -0.1621975527   -0.6152638085
C       -2.6708842539    0.1052167334   -1.6486056088
N       -1.3387737942    0.0288985924   -1.4885244861
C       -0.8533850342   -0.3179870198   -0.2931429583
C       -1.6958972055   -0.6027353896    0.7979373497
N        0.5382438909   -0.3634554817   -0.2393232485
C        1.4087273269   -0.6388564444    0.7801224312
O        1.0567858754   -0.9315837838    1.9035492132
C        2.8843477591   -0.5648521591    0.4255666471
C        3.3795931002   -0.3754600938   -1.0035232485
C        3.5165667372    0.7489031492   -0.0034169092
C        2.7334669642    2.0490163448   -0.1588374133
H        3.5005094699   -1.1833458756    1.0714528155
H        4.5172285555    0.9336536232    0.3826558430
H       -4.6428111297   -0.0852929185   -0.7980832183
H       -3.0233145719    0.3909414441   -2.6383332406
H       -1.2855327698   -0.8821950738    1.7589544468
H        0.9453218341   -0.1272516095   -1.1219408222
H        4.2878898038   -0.8980121695   -1.2947758448
H        2.6681079661   -0.2452805998   -1.8148344506
H        1.7677419975    1.9053465953   -0.6550688722
H        2.5456597596    2.5058676284    0.8202207134
H        3.3027623121    2.7689174503   -0.7586738236
C       -4.0334871630   -0.8251160368    1.7933505544
H       -4.6014786288    0.0698865458    2.0725197472
H       -4.7499196180   -1.6072408868    1.5165347261
H       -3.4934074994   -1.1689078096    2.6832872463
28   
Iteration 10 Energy -0.17875115
C       -3.0878693402   -0.5297539062    0.6443407978
C       -3.5761134176   -0.1496357588   -0.6102304478
C       -2.6688848777    0.1263790038   -1.6397511890
N       -1.3370966297    0.0443336226   -1.4796253340
C       -0.8518041200   -0.3160912076   -0.2881583919
C       -1.6964833297   -0.6116356935    0.7984438216
N        0.5397355941   -0.3671513913   -0.2355951213
C        1.4086100826   -0.6303615318    0.7884817547
O        1.0563606827   -0.9095494306    1.9152407209
C        2.8845825444   -0.5593092714    0.4348574983
C        3.3817738127   -0.3859470168   -0.9953965933
C        3.5155081851    0.7505048311   -0.0083666917
C        2.7302853642    2.0474131532   -0.1794842653
H        3.5003338724   -1.1716764106    1.0869410190
H        4.5163841278    0.9415307216    0.3740685694
H       -4.6422537940   -0.0677207223   -0.7924316573
H       -3.0196781501    0.4238675963   -2.6265912917
H       -1.2881253720   -0.9047784708    1.7561724072
H        0.9476033567   -0.1347490639   -1.1188472039
H        4.2933390294   -0.9067950894   -1.2794230982
H        2.6721725643   -0.2663280854   -1.8100030145
H        1.7812537299    1.9019732222   -0.7065401790
H        2.5099822626    2.4969540480    0.7961992811
H        3.3137840997    2.7741092992   -0.7570748140
C       -4.0345858819   -0.8390451840    1.7902192790
H       -4.5991468685    0.0545263653    2.0807059794
H       -4.7540638824   -1.6148908791    1.5037964399
H       -3.4956006986   -1.1959675169    2.6756488301
28   
Iteration 11 Energy -0.17883586
C       -3.0858674268   -0.5405513394    0.6466956140
C       -3.5691402691   -0.1044892318   -0.5917985354
C       -2.6549180285    0.2040166071   -1.6062292637
N       -1.3238097358    0.1046696197   -1.4501248762
C       -0.8463523773   -0.3045770144   -0.2714073711
C       -1.6951890793   -0.6407709702    0.8001723342
N        0.5439900605   -0.3758094817   -0.2178604072
C        1.4088724779   -0.5954846598    0.8194270753
O        1.0524552178   -0.8264033820    1.9557172913
C        2.8861858059   -0.5391846849    0.4670806696
C        3.3861700484   -0.4237763829   -0.9678123667
C        3.5110088367    0.7546911485   -0.0286395254
C        2.7142976602    2.0370306134   -0.2523302265
H        3.5029395441   -1.1254534756    1.1418376577
H        4.5104532844    0.9695794462    0.3447395574
H       -4.6339074308   -0.0056399461   -0.7732956408
H       -3.0011469074    0.5434632377   -2.5810705848
H       -1.2920296476   -0.9810901618    1.7444352785
H        0.9558732932   -0.1605368699   -1.1032871555
H        4.3050373476   -0.9444045995   -1.2279230602
H        2.6790485826   -0.3434742544   -1.7893571689
H        1.8239439977    1.8784951730   -0.8708339924
H        2.3914832527    2.4636585724    0.7050445294
H        3.3316499236    2.7871967211   -0.7606312709
C       -4.0379361937   -0.8902063951    1.7769216561
H       -4.5921728233   -0.0039386209    2.1069801027
H       -4.7662541024   -1.6436263950    1.4551014928
H       -3.5046822511   -1.2931781286    2.6460455228
28   
Iteration 12 Energy -0.17888259
C       -3.0853362632   -0.5474634944    0.6474887759
C       -3.5680942375   -0.0831226002   -0.5808783739
C       -2.6540865363    0.2447338611   -1.5897798249
N       -1.3232407363    0.1377055306   -1.4349420810
C       -0.8452765888   -0.2961676276   -0.2651783805
C       -1.6948493174   -0.6547684127    0.7984360533
N        0.5444414305   -0.3757695956   -0.2133295788
C        1.4055763782   -0.5751576514    0.8310125701
O        1.0462760136   -0.7825514628    1.9709154392
C        2.8844765593   -0.5269957738    0.4823175828
C        3.3926690946   -0.4422928344   -0.9518306879
C        3.5114237457    0.7566186343   -0.0373579859
C        2.7122431265    2.0323300020   -0.2905441580
H        3.4962213837   -1.0975639318    1.1748487752
H        4.5063196261    0.9811763834    0.3424356582
H       -4.6327344606    0.0224158895   -0.7592475608
H       -2.9996386362    0.6055709016   -2.5571510579
H       -1.2920822596   -1.0180661904    1.7343947676
H        0.9580859515   -0.1711942443   -1.1003160903
H        4.3119354554   -0.9708396046   -1.1939786592
H        2.6896764270   -0.3821162362   -1.7785620052
H        1.8471070005    1.8653187508   -0.9419512576
H        2.3498294532    2.4558685998    0.6539972089
H        3.3411512554    2.7883030444   -0.7755646954
C       -4.0381128326   -0.9195933768    1.7702140972
H       -4.5884530734   -0.0389954001    2.1213011561
H       -4.7697366019   -1.6623626822    1.4315669930
H       -3.5057882875   -1.3448152952    2.6292807812
28   
Iteration 13 Energy -0.17898150
C       -3.0834941287   -0.5669889496    0.6475536813
C       -3.5625651848   -0.0270642864   -0.5511275558
C       -2.6469135322    0.3542141887   -1.5401815782
N       -1.3166631515    0.2301086810   -1.3914566100
C       -0.8424088201   -0.2693217565   -0.2466529866
C       -1.6936083992   -0.6904916140    0.7917184145
N        0.5452098191   -0.3709824289   -0.1955941382
C        1.3978858716   -0.5144809801    0.8643304001
O        1.0285881777   -0.6547646686    2.0113971580
C        2.8795246806   -0.4924229510    0.5237013768
C        3.4014897099   -0.4915425122   -0.9073537268
C        3.5124657255    0.7594640177   -0.0635076348
C        2.7086200406    2.0158847385   -0.3908785875
H        3.4849285940   -1.0143904170    1.2588573510
H        4.4960461002    1.0084414369    0.3302991297
H       -4.6265648013    0.0948596581   -0.7227561527
H       -2.9903159762    0.7719483556   -2.4851604081
H       -1.2897966737   -1.1150361810    1.7016234538
H        0.9638768372   -0.1991952151   -1.0870905728
H        4.3163915354   -1.0457358547   -1.1043250997
H        2.7031383806   -0.4857782794   -1.7401011734
H        1.8953482156    1.8211565474   -1.0991816768
H        2.2707780770    2.4443042298    0.5189653868
H        3.3550412624    2.7787889745   -0.8407475636
C       -4.0389461073   -1.0013735789    1.7456952597
H       -4.5813315176   -0.1399969969    2.1524474636
H       -4.7771866438   -1.7149409075    1.3616862705
H       -3.5095349662   -1.4844578137    2.5754379106
28   
Iteration 14 Energy -0.17905344
C       -3.0816222813   -0.5769393710    0.6456915199
C       -3.5635682837   -0.0081144734   -0.5384857120
C       -2.6511304122    0.3979222735   -1.5210245720
N       -1.3203107896    0.2708092120   -1.3788372530
C       -0.8439961483   -0.2544344166   -0.2466831346
C       -1.6912800633   -0.7028367422    0.7826980086
N        0.5424620099   -0.3641730800   -0.1963280071
C        1.3880302125   -0.4866631906    0.8715434560
O        1.0079487103   -0.6012663902    2.0180421961
C        2.8722744080   -0.4772375328    0.5415268161
C        3.4058679319   -0.5105279455   -0.8847461354
C        3.5145118338    0.7590204858   -0.0689408866
C        2.7153455264    2.0098332740   -0.4286099090
H        3.4708004290   -0.9758478094    1.2982363569
H        4.4903406134    1.0147810660    0.3395467935
H       -4.6280911766    0.1173793391   -0.7042005256
H       -2.9975171577    0.8378218624   -2.4547873761
H       -1.2812758873   -1.1479872728    1.6803840738
H        0.9648234505   -0.2061291698   -1.0885963356
H        4.3145070272   -1.0826266098   -1.0579604552
H        2.7115919987   -0.5244163729   -1.7207353952
H        1.8989995525    1.7989218712   -1.1286467739
H        2.2813464181    2.4650767825    0.4700000392
H        3.3638319110    2.7576610925   -0.9002724234
C       -4.0339056700   -1.0383847673    1.7356289242
H       -4.5748348340   -0.1872821451    2.1653086245
H       -4.7732493062   -1.7423619292    1.3363625325
H       -3.5018969237   -1.5417923832    2.5514833956
28   
Iteration 15 Energy -0.17911990
C       -3.0814598921   -0.5954760203    0.6424220490
C       -3.5609317674    0.0361822443   -0.5106046923
C       -2.6473150136    0.4893642029   -1.4710803434
N       -1.3168229464    0.3518296045   -1.3363826956
C       -0.8438029523   -0.2274237470   -0.2297359636
C       -1.6916779824   -0.7311220297    0.7723220784
N        0.5407613486   -0.3545343767   -0.1802682653
C        1.3791289328   -0.4288135244    0.8974342302
O        0.9873411669   -0.4817689533    2.0447387763
C        2.8650051406   -0.4441367618    0.5786742213
C        3.4093649318   -0.5497014161   -0.8395315736
C        3.5161786636    0.7580782703   -0.0871799215
C        2.7207953464    1.9907440521   -0.5099834369
H        3.4573348844   -0.9002216162    1.3664623692
H        4.4870998474    1.0306970079    0.3221097330
H       -4.6250700505    0.1728506431   -0.6699485962
H       -2.9926704355    0.9764101236   -2.3815298638
H       -1.2785588394   -1.2273652014    1.6419504926
H        0.9667224379   -0.2241446023   -1.0754488467
H        4.3140061862   -1.1378938081   -0.9755956438
H        2.7194936542   -0.6044868339   -1.6774936373
H        1.9104265201    1.7460691815   -1.2062483262
H        2.2789696518    2.4866450041    0.3629078015
H        3.3732698753    2.7164180305   -1.0098572212
C       -4.0346859278   -1.1122340267    1.7058300768
H       -4.5722436731   -0.2838586892    2.1816926656
H       -4.7767183877   -1.7908095916    1.2693430807
H       -3.5039376861   -1.6610913259    2.4925994585
28   
Iteration 16 Energy -0.17922638
C       -3.0822083731   -0.6020821949    0.6384716631
C       -3.5650462823    0.0367768691   -0.5092695089
C       -2.6543360987    0.4996993117   -1.4672971430
N       -1.3232459551    0.3659232286   -1.3372346516
C       -0.8483107126   -0.2196361848   -0.2350341406
C       -1.6921254245   -0.7340583742    0.7642742303
N        0.5359598163   -0.3479506689   -0.1838056118
C        1.3693089153   -0.4175901011    0.8979758725
O        0.9674798998   -0.4615401259    2.0423949654
C        2.8561517400   -0.4385301754    0.5893864150
C        3.4058371005   -0.5530027119   -0.8262311068
C        3.5165764686    0.7562346009   -0.0792868881
C        2.7361621251    1.9931762512   -0.5134908683
H        3.4444251325   -0.8925485231    1.3814009928
H        4.4919468870    1.0208394620    0.3246476883
H       -4.6298253185    0.1714974376   -0.6661308558
H       -3.0030210068    0.9922574477   -2.3735001365
H       -1.2721104065   -1.2341579355    1.6287250389
H        0.9649158726   -0.2241127017   -1.0787345302
H        4.3097204874   -1.1430339144   -0.9592344018
H        2.7199491250   -0.6038247639   -1.6677868354
H        1.8682639412    1.7439107006   -1.1345784783
H        2.3790104822    2.5529582327    0.3593888928
H        3.3755483621    2.6634597281   -1.1000347702
C       -4.0312721730   -1.1292921491    1.6994715693
H       -4.5719754005   -0.3062198172    2.1809506977
H       -4.7707724247   -1.8086303266    1.2599055586
H       -3.4970039039   -1.6803166994    2.4822542321
28   
Iteration 17 Energy -0.17928389
C       -3.0838141652   -0.6073677663    0.6370676586
C       -3.5652932423    0.0470732754   -0.5025521718
C       -2.6527891481    0.5202043306   -1.4541013821
N       -1.3219996084    0.3817666335   -1.3252178820
C       -0.8485161288   -0.2184119847   -0.2302361979
C       -1.6939932813   -0.7441961001    0.7617308063
N        0.5349764143   -0.3534047147   -0.1796593005
C        1.3655322532   -0.4086667618    0.9049055368
O        0.9601724271   -0.4411324997    2.0484574905
C        2.8535874696   -0.4297163599    0.6010759363
C        3.4053392852   -0.5591632012   -0.8129743370
C        3.5152730096    0.7576791188   -0.0793337152
C        2.7410150340    1.9921587677   -0.5318850793
H        3.4391233379   -0.8809484207    1.3966804209
H        4.4950789931    1.0245349781    0.3121852441
H       -4.6296849011    0.1861350589   -0.6580968456
H       -2.9999239244    1.0248719906   -2.3542185190
H       -1.2752002048   -1.2555863129    1.6202182871
H        0.9650356505   -0.2350316855   -1.0746290395
H        4.3143887710   -1.1421330758   -0.9421087852
H        2.7230204356   -0.6155726300   -1.6570798213
H        1.8619694435    1.7396339215   -1.1354665369
H        2.4030077051    2.5760667161    0.3327659758
H        3.3789729582    2.6411339116   -1.1434346036
C       -4.0344899784   -1.1459464612    1.6910542411
H       -4.5734494229   -0.3278068369    2.1827906692
H       -4.7754956257   -1.8178239593    1.2426285674
H       -3.5018407402   -1.7081440402    2.4670312507
28   
Iteration 18 Energy -0.17930344
C       -3.0851236406   -0.6077764222    0.6368509631
C       -3.5647225982    0.0497039657   -0.5018879655
C       -2.6503364322    0.5214426212   -1.4526460273
N       -1.3200549403    0.3780805993   -1.3232871273
C       -0.8481547936   -0.2256920859   -0.2294516006
C       -1.6956892192   -0.7495493315    0.7618498321
N        0.5347770054   -0.3647874447   -0.1787748599
C        1.3648612727   -0.4158866299    0.9062657821
O        0.9600880999   -0.4524248416    2.0499039513
C        2.8537773572   -0.4285921156    0.6035796457
C        3.4058650397   -0.5555729972   -0.8110606825
C        3.5129743616    0.7609376009   -0.0759123828
C        2.7411759798    1.9958428544   -0.5331829539
H        3.4387391992   -0.8862488894    1.3958887649
H        4.4962932730    1.0285625323    0.3061343575
H       -4.6286295545    0.1925633750   -0.6572112642
H       -2.9954704303    1.0287943207   -2.3520247380
H       -1.2792225264   -1.2620402269    1.6207432059
H        0.9651723403   -0.2474093389   -1.0735635861
H        4.3205951797   -1.1288860174   -0.9434502060
H        2.7261725946   -0.6101033237   -1.6573932279
H        1.8534800545    1.7456297665   -1.1244218595
H        2.4174148279    2.5908721824    0.3293280437
H        3.3765197839    2.6339395905   -1.1587613103
C       -4.0378666763   -1.1442837599    1.6903462990
H       -4.5743196834   -0.3248345967    2.1826411417
H       -4.7811196389   -1.8131608664    1.2411437410
H       -3.5071934333   -1.7089147779    2.4659519083
28   
Iteration 19 Energy -0.17930489
C       -3.0847372971   -0.6090275121    0.6366084448
C       -3.5634042977    0.0554376973   -0.4984706167
C       -2.6483731798    0.5309707147   -1.4467886961
N       -1.3182797190    0.3849668795   -1.3183165701
C       -0.8473511644   -0.2251870194   -0.2276075625
C       -1.6954938987   -0.7534902002    0.7607206678
N        0.5352010776   -0.3674262223   -0.1773874070
C        1.3646399714   -0.4126598305    0.9083745353
O        0.9588718961   -0.4445074488    2.0518250526