28
Properties=species:S:1:pos:R:3 Iteration=T 16=T Energy=T -0.17454646=T pbc="F F F"
C       -3.13451838      -0.38480451       0.66189164
C       -3.56619442       0.58189301      -0.25268512
C       -2.61251034       1.34202257      -0.94036047
N       -1.28903447       1.18876645      -0.76413419
C       -0.85968352       0.27261921       0.10854220
C       -1.75125060      -0.53608869       0.83850799
N        0.52748432       0.19366784       0.21088280
C        1.34614188      -0.57062244       0.99099911
O        0.94222309      -1.37261428       1.80657767
C        2.83692615      -0.35936509       0.79343492
C        3.49518509      -1.02802862      -0.39842652
C        3.50048001       0.48101969      -0.29753625
C        2.80592477       1.31276402      -1.37508982
H        3.38715507      -0.44230882       1.72603353
H        4.43728230       0.94739546       0.00166988
H       -4.62282928       0.74696119      -0.43362279
H       -2.91878908       2.10048094      -1.65892924
H       -1.38629469      -1.27678925       1.53724584
H        0.97995499       0.84226949      -0.40118697
H        4.43298005      -1.55233958      -0.22998438
H        2.84732320      -1.49285800      -1.13882975
H        2.03822580       0.74445309      -1.91406827
H        2.34301657       2.20908123      -0.94439076
H        3.53516561       1.64694028      -2.12286588
C       -4.13238031      -1.23397713       1.42965812
H       -4.79599955      -0.60467135       2.03398363
H       -4.75478575      -1.81999287       0.74351344
H       -3.63119615      -1.93567101       2.10676712
