28
Properties=species:S:1:pos:R:3 Iteration=T 25=T Energy=T -611.65430614=T pbc="F F F"
C       -3.09875648      -0.40513343       0.59981472
C       -3.74501494       0.83400106       0.66760582
C       -2.97351682       1.98551244       0.69249341
N       -1.64098728       1.98953781       0.65823402
C       -1.03183198       0.80416763       0.59494178
C       -1.70914269      -0.42000439       0.56171239
N        0.35799406       0.91444471       0.56302798
C        1.30795467      -0.07295229       0.50547073
O        1.04317502      -1.26448284       0.43797268
C        2.70240749       0.45720172       0.45819446
C        3.83434208      -0.52171281       0.37768545
C        3.49423349       0.28424068      -0.83316305
C        2.88604184      -0.35237451      -2.05507547
H        2.86723294       1.39074995       0.99240629
H        4.15713535       1.12194373      -1.04351128
H       -4.82888384       0.89827453       0.69944049
H       -3.44562296       2.96508891       0.74381926
H       -1.14521588      -1.34200449       0.50582041
H        0.66709704       1.87738921       0.58338761
H        4.74069961      -0.29582302       0.93085593
H        3.53147356      -1.56522513       0.37894721
H        2.19195368      -1.15231283      -1.78185638
H        2.33819252       0.38414555      -2.65409661
H        3.66951595      -0.78427059      -2.68766685
C       -3.88315232      -1.68388972       0.56316945
H       -4.53781067      -1.76732419       1.43799304
H       -4.52465716      -1.72264379      -0.32479590
H       -3.22485487      -2.55634177       0.54477063
