28   
Iteration 0 Energy -0.17758243
C       -3.1221856600   -0.3454378200    0.2229905100
C       -3.6100878100    0.9041416900   -0.1748194000
C       -2.7158945300    1.9554203700   -0.3082788800
N       -1.4069431400    1.8534451000   -0.0786246000
C       -0.9496991600    0.6591186900    0.3012073300
C       -1.7589493500   -0.4703195500    0.4658086800
N        0.4284956700    0.6497117500    0.5136191400
C        1.2407442200   -0.3788656400    0.9190366300
O        0.8503001900   -1.5151206300    1.1258631900
C        2.6784106500    0.0450824600    1.0464000900
C        3.7655012800   -0.8771819900    0.6077462700
C        3.4852526900    0.3654216200   -0.1935210400
C        2.8762477900    0.2524046300   -1.5677930300
H        2.8674388600    0.6676208400    1.9201754700
H        4.2002088200    1.1782508100   -0.0784903600
H       -4.6669402500    1.0530734800   -0.3768056000
H       -3.0638915600    2.9395225800   -0.6175081000
H       -1.3117102700   -1.4063243700    0.7741740100
H        0.8577856400    1.5483212800    0.3365589900
H        4.6690875600   -0.9280636700    1.2071893700
H        3.4462785900   -1.8271587900    0.1872806700
H        2.1712105400   -0.5842870900   -1.6225941700
H        2.3329309300    1.1617073500   -1.8504195000
H        3.6551579400    0.0805905400   -2.3188125500
C       -4.0437475500   -1.5181606000    0.3874324700
H       -4.7917962800   -1.3193009300    1.1634680200
H       -4.5882142500   -1.7223902700   -0.5413947000
H       -3.4949865000   -2.4210159000    0.6677053100
28   
Iteration 1 Energy -0.17911495
C       -3.1711722910   -0.3397479091    0.2143478503
C       -3.6038225607    0.9284789154   -0.1849506552
C       -2.6638350219    1.9427638029   -0.3043428569
N       -1.3614066718    1.7832366458   -0.0586357859
C       -0.9435558566    0.5738254459    0.3240140969
C       -1.8142515527   -0.5169041814    0.4720554495
N        0.4354722016    0.5266054783    0.5482891735
C        1.3022469671   -0.4581264620    0.9541668460
O        1.0186101150   -1.6185954692    1.1887834955
C        2.7112593069    0.0608460357    1.0499894128
C        3.8506170846   -0.7960395506    0.6039205389
C        3.4752122578    0.4159108228   -0.2087974576
C        2.8530090827    0.2452765347   -1.5739937129
H        2.8740600205    0.7066518963    1.9112429351
H        4.1366281091    1.2756303588   -0.1176013642
H       -4.6508715689    1.1214827919   -0.3988143231
H       -2.9662139554    2.9416030990   -0.6143700658
H       -1.4231885622   -1.4755005808    0.7816260895
H        0.8542863434    1.4270760808    0.3663823494
H        4.7656672472   -0.7783019274    1.1882507865
H        3.5887588246   -1.7715051015    0.2017451653
H        2.2031934365   -0.6363251034   -1.6093062917
H        2.2474487858    1.1142261720   -1.8572126843
H        3.6300487927    0.1154348111   -2.3355266866
C       -4.1418949675   -1.4771593653    0.3650059275
H       -4.8901582064   -1.2506872496    1.1332619702
H       -4.6830041617   -1.6571983847   -0.5708352800
H       -3.6331381568   -2.4027516665    0.6488993048
28   
Iteration 2 Energy -0.18095205
C       -3.1713234573   -0.3465204689    0.2209582691
C       -3.6205337718    0.9158324782   -0.1795525792
C       -2.7020065914    1.9560214974   -0.3098810619
N       -1.3926449052    1.8106917615   -0.0675603962
C       -0.9407600372    0.6134604875    0.3174901955
C       -1.8036513821   -0.4861003448    0.4699375396
N        0.4372281688    0.5809721508    0.5371052219
C        1.2827907653   -0.4171423856    0.9429140320
O        0.9587725112   -1.5667515459    1.1689883639
C        2.7081612575    0.0558411661    1.0508010580
C        3.8272996706   -0.8403068482    0.6084141388
C        3.4964794513    0.3924653223   -0.2011364210
C        2.8869977512    0.2548418299   -1.5833890925
H        2.8864007738    0.6915035657    1.9144531351
H        4.1831362129    1.2310354647   -0.1023838224
H       -4.6709795194    1.0907675077   -0.3886785308
H       -3.0247016260    2.9480885803   -0.6213635567
H       -1.4052015268   -1.4415751047    0.7801900355
H        0.8581353573    1.4762062265    0.3566052011
H        4.7377574241   -0.8516046205    1.2014636954
H        3.5424974843   -1.8073587320    0.1994113236
H        2.2082893487   -0.6042210567   -1.6434391970
H        2.3162435625    1.1487505318   -1.8616018718
H        3.6710724436    0.1085136973   -2.3352101231
C       -4.1260855569   -1.5046442994    0.3801411537
H       -4.8736968006   -1.2885639295    1.1521113587
H       -4.6672546965   -1.6964119706   -0.5535296226
H       -3.6024172195   -2.4235850082    0.6643357642
28   
Iteration 3 Energy -0.18124238
C       -3.1400277030   -0.3400693188    0.2236197950
C       -3.6346601494    0.9045802073   -0.1833156349
C       -2.7333205942    1.9706416288   -0.3154182742
N       -1.4170428636    1.8456657647   -0.0677178318
C       -0.9446543562    0.6582613066    0.3229848490
C       -1.7663154720   -0.4745564804    0.4847006246
N        0.4285054972    0.6400438754    0.5504295705
C        1.2521920628   -0.3691288236    0.9554191066
O        0.9016776673   -1.5092940543    1.1773195647
C        2.6937007847    0.0562386518    1.0577576888
C        3.7871226576   -0.8907472280    0.6090331978
C        3.4931748275    0.3622175176   -0.1962948412
C        2.8980294381    0.2570351877   -1.5995553532
H        2.9028577832    0.6848794658    1.9168714493
H        4.2083999994    1.1780878476   -0.1147980850
H       -4.6881183537    1.0513870045   -0.3938341267
H       -3.0762135050    2.9550513105   -0.6298056400
H       -1.3698091227   -1.4300686055    0.8008759694
H        0.8527671554    1.5290041680    0.3777550118
H        4.7007452679   -0.9212978348    1.1983383708
H        3.4827265436   -1.8530580293    0.2004438811
H        2.1914948648   -0.5779259004   -1.6884872587
H        2.3660402113    1.1781631303   -1.8660102009
H        3.6891740610    0.0974481397   -2.3419497016
C       -4.0833555684   -1.5219392274    0.3799341942
H       -4.8358194274   -1.3194883693    1.1509680110
H       -4.6114906446   -1.7255677063   -0.5589017789
H       -3.5477761186   -2.4353573973    0.6672321711
28   
Iteration 4 Energy -0.18170510
C       -3.1565717668   -0.3467830149    0.2201837556
C       -3.6272765177    0.9063139993   -0.1879669552
C       -2.7199361863    1.9658497099   -0.3149627070
N       -1.4046751666    1.8482450843   -0.0645372533
C       -0.9377984190    0.6598940171    0.3282337341
C       -1.7819331751   -0.4565852830    0.4801259185
N        0.4348707421    0.6297481765    0.5636278731
C        1.2645076479   -0.3772832905    0.9665259959
O        0.9202134329   -1.5196454700    1.1895377175
C        2.7028988059    0.0579564480    1.0606385881
C        3.7986503764   -0.8823824973    0.6044540574
C        3.4892088425    0.3661850914   -0.1987210912
C        2.8847672430    0.2531292081   -1.5951807777
H        2.9148828044    0.6889109995    1.9182167550
H        4.2018350746    1.1854699371   -0.1282600156
H       -4.6779700262    1.0650948070   -0.4050971171
H       -3.0609465854    2.9503187348   -0.6311105586
H       -1.3849405683   -1.4112408896    0.7990966265
H        0.8617749595    1.5196524710    0.3940458194
H        4.7181430199   -0.9043572961    1.1842941553
H        3.4987667561   -1.8466179979    0.1981012568
H        2.1850857750   -0.5883238894   -1.6728529708
H        2.3426358020    1.1687324838   -1.8600285183
H        3.6707657502    0.0988258229   -2.3439016239
C       -4.0985609562   -1.5286553663    0.3738703193
H       -4.8533852343   -1.3273725415    1.1428670558
H       -4.6225135827   -1.7344616305   -0.5667595022
H       -3.5624938569   -2.4404115230    0.6631542233
28   
Iteration 5 Energy -0.18171903
C       -3.1548389296   -0.3461743792    0.2199707649
C       -3.6166185739    0.9081508090   -0.1923046908
C       -2.7118254856    1.9680008069   -0.3218003933
N       -1.4004147860    1.8305253158   -0.0636215467
C       -0.9386372591    0.6410639923    0.3328440731
C       -1.7842645837   -0.4738928717    0.4863202886
N        0.4347434971    0.6149466063    0.5695627548
C        1.2715663679   -0.3885934856    0.9694875254
O        0.9351936222   -1.5336310884    1.1923058094
C        2.7062596241    0.0581899575    1.0616764332
C        3.8080171111   -0.8711195066    0.6008297296
C        3.4850568004    0.3744773628   -0.1996425163
C        2.8754291362    0.2555557933   -1.5918266488
H        2.9150541426    0.6891748517    1.9203865539
H        4.1934845644    1.1976305302   -0.1311415127
H       -4.6667728539    1.0678046352   -0.4121096785
H       -3.0449654242    2.9540797675   -0.6412890116
H       -1.3940740340   -1.4299076300    0.8082568082
H        0.8579174409    1.5074205486    0.3993759586
H        4.7304407395   -0.8860145410    1.1759385165
H        3.5145903156   -1.8365165342    0.1929286327
H        2.1842329792   -0.5932060605   -1.6638959147
H        2.3219497692    1.1647475303   -1.8552634685
H        3.6590347414    0.1091174211   -2.3445272138
C       -4.1074725695   -1.5181498383    0.3721268310
H       -4.8630935348   -1.3088290812    1.1381682859
H       -4.6298879934   -1.7210989420   -0.5699379337
H       -3.5800998163   -2.4335456113    0.6647762300
28   
Iteration 6 Energy -0.18175365
C       -3.1545086319   -0.3425567388    0.2198809069
C       -3.6267142236    0.9066364801   -0.1966873964
C       -2.7154558190    1.9615869392   -0.3251532015
N       -1.4028827126    1.8333423181   -0.0670659545
C       -0.9363612850    0.6470718704    0.3328221820
C       -1.7833661358   -0.4667157013    0.4875113429
N        0.4365015273    0.6224776522    0.5711616913
C        1.2690223497   -0.3853246155    0.9683102981
O        0.9282698889   -1.5296689826    1.1875044171
C        2.7056240588    0.0548926037    1.0626928580
C        3.8038614720   -0.8781456662    0.5989607927
C        3.4861204570    0.3716032058   -0.1976122200
C        2.8773352751    0.2594105262   -1.5912558815
H        2.9171195869    0.6817719935    1.9235818180
H        4.1995247980    1.1902999500   -0.1275541913
H       -4.6767826350    1.0645406241   -0.4178863810
H       -3.0485544032    2.9468075648   -0.6473353250
H       -1.3934776340   -1.4218734723    0.8123088691
H        0.8610249926    1.5142661846    0.4023050356
H        4.7267399878   -0.8978895943    1.1733000958
H        3.5073207516   -1.8410854933    0.1873653256
H        2.1836500506   -0.5870336978   -1.6673687525
H        2.3268336647    1.1713140669   -1.8515931140
H        3.6612586000    0.1137109786   -2.3438120817
C       -4.1016310146   -1.5191037791    0.3758933108
H       -4.8579436561   -1.3112923594    1.1416666874
H       -4.6228981569   -1.7277604245   -0.5655721042
H       -3.5696261631   -2.4310759977    0.6712256331
28   
Iteration 7 Energy -0.18176885
C       -3.1535205224   -0.3459071485    0.2218407996
C       -3.6204368939    0.9040708551   -0.1992979269
C       -2.7123180780    1.9620564274   -0.3313650513
N       -1.3992676446    1.8389732624   -0.0721909385
C       -0.9375151551    0.6524665938    0.3318247621
C       -1.7813404265   -0.4631808969    0.4905590985
N        0.4342030512    0.6248008662    0.5735990068
C        1.2654004344   -0.3846228258    0.9676913950
O        0.9228555901   -1.5290617177    1.1829827620
C        2.7030262713    0.0521269193    1.0635187966
C        3.7995656794   -0.8826635810    0.5967459766
C        3.4845543520    0.3708136567   -0.1958757998
C        2.8772863886    0.2646001807   -1.5914338221
H        2.9162606855    0.6754029491    1.9263997693
H        4.2009902685    1.1867131511   -0.1244619781
H       -4.6700637649    1.0615713566   -0.4225229481
H       -3.0486175130    2.9449497762   -0.6573116079
H       -1.3883100180   -1.4157188188    0.8198593695
H        0.8604633292    1.5156834722    0.4065768443
H        4.7228903864   -0.9052637336    1.1703973347
H        3.5020325266   -1.8439265475    0.1817777153
H        2.1830196126   -0.5809705810   -1.6727467270
H        2.3279846389    1.1782880611   -1.8480532665
H        3.6621633216    0.1218579206   -2.3436132891
C       -4.1013820465   -1.5224789437    0.3803126027
H       -4.8586053693   -1.3122647241    1.1445382071
H       -4.6210553093   -1.7341487159   -0.5613807943
H       -3.5702588339   -2.4339608314    0.6792244366
28   
Iteration 8 Energy -0.18178537
C       -3.1546755590   -0.3451672934    0.2227026305
C       -3.6195122457    0.9036008780   -0.2036727159
C       -2.7098500625    1.9594450942   -0.3383117108
N       -1.3979023579    1.8323292746   -0.0762251179
C       -0.9370100977    0.6469799092    0.3324220237
C       -1.7837483516   -0.4659564770    0.4941005833
N        0.4346706676    0.6201331635    0.5759094353
C        1.2673799756   -0.3897717577    0.9665605946
O        0.9262445533   -1.5354291375    1.1780727117
C        2.7041445587    0.0492648097    1.0638668864
C        3.8020544638   -0.8815067290    0.5937134715
C        3.4845011174    0.3736551727   -0.1946526701
C        2.8766227238    0.2702473041   -1.5896902527
H        2.9162977873    0.6696898758    1.9291888662
H        4.2005710690    1.1896866325   -0.1209077762
H       -4.6687188097    1.0615697908   -0.4287645243
H       -3.0430217943    2.9421134727   -0.6681200805
H       -1.3937259036   -1.4181156611    0.8278135620
H        0.8602789043    1.5118286896    0.4100788713
H        4.7259392464   -0.9043124298    1.1663658526
H        3.5061160066   -1.8416820395    0.1752261260
H        2.1852793408   -0.5774768792   -1.6729225551
H        2.3237364088    1.1826810249   -1.8430362555
H        3.6613250818    0.1328088991   -2.3430059631
C       -4.1048530714   -1.5188942330    0.3842530603
H       -4.8625873240   -1.3044233703    1.1467808796
H       -4.6238827824   -1.7329901178   -0.5572347862
H       -3.5756686001   -2.4301015513    0.6870834473
28   
Iteration 9 Energy -0.18179754
C       -3.1556859853   -0.3447760752    0.2248630837
C       -3.6179012723    0.9015228942   -0.2112354364
C       -2.7059721300    1.9545224593   -0.3510380426
N       -1.3950112161    1.8259217402   -0.0850920059
C       -0.9362688122    0.6426638021    0.3320406329
C       -1.7858420989   -0.4671246850    0.5001074407
N        0.4348717253    0.6160873750    0.5791125668
C        1.2677313845   -0.3962372791    0.9635308695
O        0.9275626857   -1.5436297652    1.1673091913
C        2.7040474538    0.0433211820    1.0644802970
C        3.8026776472   -0.8832883658    0.5885477370
C        3.4843446276    0.3766033910   -0.1917043522
C        2.8767700255    0.2813315287   -1.5872618016
H        2.9153990823    0.6577135627    1.9343317311
H        4.2012111677    1.1914675048   -0.1128913977
H       -4.6664107740    1.0596434421   -0.4395292840
H       -3.0362168539    2.9357182725   -0.6880931674
H       -1.3987641969   -1.4175408616    0.8420327306
H        0.8606612280    1.5083253319    0.4160871720
H        4.7269177837   -0.9089102559    1.1604776464
H        3.5078049806   -1.8407869696    0.1632701448
H        2.1883458343   -0.5681486136   -1.6764429339
H        2.3205671595    1.1935580707   -1.8340108894
H        3.6618256723    0.1521697463   -2.3416615640
C       -4.1082971956   -1.5153638234    0.3928776729
H       -4.8669459075   -1.2941701978    1.1525667961
H       -4.6261206602   -1.7350127831   -0.5479912307
H       -3.5812964387   -2.4253743705    0.7029109257
28   
Iteration 10 Energy -0.18181462
C       -3.1574565682   -0.3445326193    0.2282066512
C       -3.6159834164    0.8982225434   -0.2215912175
C       -2.7008383800    1.9472552484   -0.3690004439
N       -1.3910225495    1.8176617512   -0.0981814848
C       -0.9356899354    0.6373296852    0.3308612546
C       -1.7888493625   -0.4681823020    0.5084019355
N        0.4345620976    0.6104741386    0.5829509358
C        1.2680733894   -0.4046660264    0.9585946593
O        0.9276803934   -1.5540287281    1.1508147803
C        2.7040043276    0.0348038036    1.0650748845
C        3.8033655978   -0.8865605540    0.5813416313
C        3.4849946283    0.3803422844   -0.1873601235
C        2.8783168923    0.2974878585   -1.5839818695
H        2.9142847284    0.6405657091    1.9412354102
H        4.2028234473    1.1935738417   -0.1007991347
H       -4.6635285712    1.0565686120   -0.4541606598
H       -3.0274632287    2.9260958546   -0.7162751667
H       -1.4054342761   -1.4158426894    0.8619155477
H        0.8605830987    1.5034059177    0.4240294919
H        4.7276526528   -0.9168595150    1.1529524233
H        3.5095567236   -1.8400728529    0.1464943530
H        2.1932451702   -0.5536956987   -1.6822691578
H        2.3184754999    1.2099834034   -1.8213396456
H        3.6640743563    0.1794549121   -2.3394665746
C       -4.1133344109   -1.5108509316    0.4057469112
H       -4.8730857256   -1.2801975136    1.1615075058
H       -4.6297208283   -1.7384932921   -0.5340101171
H       -3.5892808016   -2.4190366016    0.7259017975
28   
Iteration 11 Energy -0.18184022
C       -3.1599018339   -0.3442756152    0.2330328617
C       -3.6135149865    0.8931914357   -0.2359426224
C       -2.6938160317    1.9365567623   -0.3941999119
N       -1.3854343965    1.8064675953   -0.1169861827
C       -0.9349060652    0.6304395507    0.3286882675
C       -1.7928461893   -0.4690473235    0.5198080965
N        0.4340190477    0.6030216613    0.5877419110
C        1.2681550739   -0.4160819430    0.9510537682
O        0.9270194879   -1.5679222947    1.1266952825
C        2.7037017739    0.0226291032    1.0656229030
C        3.8038667958   -0.8916761219    0.5712438743
C        3.4862191223    0.3852069938   -0.1810783962
C        2.8810287082    0.3204988239   -1.5792211523
H        2.9124663012    0.6160697216    1.9505356148
H        4.2053111482    1.1960264516   -0.0831370069
H       -4.6597347113    1.0517191776   -0.4742980928
H       -3.0157146281    2.9117773530   -0.7557780970
H       -1.4142184323   -1.4124672110    0.8895374961
H        0.8604988539    1.4967843653    0.4346622332
H        4.7278963751   -0.9291192313    1.1428466705
H        3.5112024898   -1.8393147838    0.1229833419
H        2.2001073053   -0.5323916677   -1.6907714432
H        2.3167893059    1.2336444014   -1.8033168631
H        3.6678397002    0.2176901844   -2.3358300867
C       -4.1200931027   -1.5046706321    0.4242699534
H       -4.8812285608   -1.2608438130    1.1744786137
H       -4.6347307942   -1.7436941744   -0.5136205060
H       -3.5999767387   -2.4100125272    0.7585741615
28   
Iteration 12 Energy -0.18167372
C       -3.1506388738   -0.3484043662    0.2378672281
C       -3.6077708003    0.8848226358   -0.2394406501
C       -2.6993833598    1.9370053091   -0.4072101414
N       -1.3896615375    1.8200986523   -0.1302531293
C       -0.9344875550    0.6488627194    0.3228574706
C       -1.7817215568   -0.4568642615    0.5236698735
N        0.4337104539    0.6282426054    0.5837007159
C        1.2526460661   -0.4046427185    0.9413047382
O        0.8957826086   -1.5533905688    1.1053773831
C        2.6936223621    0.0133921282    1.0649198156
C        3.7832867730   -0.9119883544    0.5668236535
C        3.4862629110    0.3758698945   -0.1754394431
C        2.8862095402    0.3324338089   -1.5768993483
H        2.9070691510    0.5966306739    1.9554209709
H        4.2148994995    1.1768116609   -0.0673583513
H       -4.6550999443    1.0345109457   -0.4785247354
H       -3.0311576349    2.9063679901   -0.7755491545
H       -1.3917348196   -1.3930400003    0.9005809590
H        0.8642167888    1.5208158085    0.4358652409
H        4.7039594083   -0.9671705116    1.1424343699
H        3.4794537067   -1.8517820026    0.1095121372
H        2.1949817656   -0.5105481321   -1.6999538545
H        2.3347718807    1.2549919131   -1.7942167636
H        3.6749631071    0.2269625139   -2.3311313911
C       -4.1035184568   -1.5138324474    0.4375367959
H       -4.8658975470   -1.2696653627    1.1863771268
H       -4.6169330960   -1.7625266324   -0.4985156709
H       -3.5778258414   -2.4137576311    0.7778390109
28   
Iteration 13 Energy -0.18180446
C       -3.1544418209   -0.3465862001    0.2347365578
C       -3.6108099052    0.8895995286   -0.2354777111
C       -2.6979072941    1.9387672709   -0.3968920738
N       -1.3885141461    1.8161752609   -0.1209088238
C       -0.9348598792    0.6418813330    0.3258137875
C       -1.7860166942   -0.4621127587    0.5198401330
N        0.4337538140    0.6177804891    0.5848160573
C        1.2596950855   -0.4079664615    0.9471258113
O        0.9100299595   -1.5577298808    1.1194051438
C        2.6982736586    0.0197596752    1.0653197802
C        3.7926301549   -0.9017060397    0.5707222844
C        3.4859215561    0.3794848594   -0.1790302058
C        2.8830619313    0.3229599263   -1.5787232564
H        2.9098389637    0.6095617047    1.9519562532
H        4.2106251825    1.1848745711   -0.0777551741
H       -4.6578504173    1.0433584000   -0.4732728336
H       -3.0260435424    2.9114636684   -0.7596597543
H       -1.4002681066   -1.4023339355    0.8908094429
H        0.8625038220    1.5106000478    0.4332073017
H        4.7151856153   -0.9474078889    1.1441323972
H        3.4938221306   -1.8461240037    0.1196862599
H        2.1961201929   -0.5245899263   -1.6941170771
H        2.3260600902    1.2408922587   -1.8013704504
H        3.6706677286    0.2164188397   -2.3339987699
C       -4.1098698547   -1.5108269147    0.4282231790
H       -4.8714563332   -1.2691000242    1.1786580614
H       -4.6241701484   -1.7531674485   -0.5090064281
H       -3.5859767298   -2.4137201013    0.7633548384
28   
Iteration 14 Energy -0.18184082
C       -3.1571772479   -0.3454458599    0.2338255544
C       -3.6121459400    0.8914906150   -0.2355926211
C       -2.6957842902    1.9377843631   -0.3952983365
N       -1.3868737616    1.8114544317   -0.1187631112
C       -0.9348883457    0.6362122863    0.3272565558
C       -1.7893812714   -0.4655657253    0.5196984338
N        0.4338274488    0.6102618124    0.5862618935
C        1.2639393930   -0.4120185124    0.9491856536
O        0.9186412814   -1.5628272645    1.1233224232
C        2.7009830388    0.0213296873    1.0654862362
C        3.7983185517   -0.8965436969    0.5711008509
C        3.4860086683    0.3823804357   -0.1801197828
C        2.8819235891    0.3214969767   -1.5790197701
H        2.9111218361    0.6130802691    1.9511800441
H        4.2078808423    1.1905352293   -0.0806471503
H       -4.6587762114    1.0477007461   -0.4736281659
H       -3.0208142684    2.9117958458   -0.7573335092
H       -1.4071504828   -1.4074506214    0.8899057839
H        0.8614582750    1.5035206256    0.4338581867
H        4.7216521672   -0.9379627603    1.1435710519
H        3.5026434987   -1.8426617459    0.1215818985
H        2.1980289139   -0.5287889233   -1.6923193920
H        2.3212334600    1.2369706648   -1.8025280852
H        3.6691127299    0.2167415956   -2.3349745906
C       -4.1149903877   -1.5078087734    0.4260522529
H       -4.8763361687   -1.2651379697    1.1764249152
H       -4.6294828030   -1.7483658390   -0.5115290381
H       -3.5929674988   -2.4119716474    0.7606365226
28   
Iteration 15 Energy -0.18184759
C       -3.1584933114   -0.3454386303    0.2336615553
C       -3.6114287214    0.8921805262   -0.2359328039
C       -2.6937609630    1.9374048602   -0.3954193068
N       -1.3850403779    1.8097039391   -0.1185346071
C       -0.9347695978    0.6338560775    0.3276500618
C       -1.7908155784   -0.4668599250    0.5198700381
N        0.4339170527    0.6064011198    0.5870729629
C        1.2654223416   -0.4148043595    0.9499817574
O        0.9238001203   -1.5665757061    1.1248085280
C        2.7016015521    0.0215952174    1.0655903211
C        3.8007103102   -0.8941491178    0.5710154703
C        3.4854155541    0.3839634330   -0.1804138642
C        2.8809564247    0.3215042527   -1.5791404330
H        2.9108448310    0.6140392391    1.9510195024
H        4.2055742416    1.1937034170   -0.0814293201
H       -4.6577588761    1.0497989314   -0.4743335472
H       -3.0176005730    2.9117596506   -0.7575974124
H       -1.4099203668   -1.4091897100    0.8902549457
H        0.8614668331    1.4996625495    0.4346950228
H        4.7243298079   -0.9334689558    1.1431813691
H        3.5068736068   -1.8410256729    0.1218766582
H        2.1988294129   -0.5302543186   -1.6920683660
H        2.3182581261    1.2357550888   -1.8026080861
H        3.6681108196    0.2182705035   -2.3353440689
C       -4.1178747919   -1.5066299978    0.4256413714
H       -4.8791450669   -1.2629629627    1.1757685263
H       -4.6323714598   -1.7465680843   -0.5120973824
H       -3.5971263337   -2.4114651174    0.7604258105
28   
Iteration 16 Energy -0.18185386
C       -3.1596704843   -0.3450906430    0.2346204321
C       -3.6121108235    0.8914240119   -0.2383919442
C       -2.6926992716    1.9349524344   -0.3997458087
N       -1.3840499721    1.8074589979   -0.1221274878
C       -0.9349254070    0.6322864249    0.3269886511
C       -1.7921534095   -0.4670997450    0.5218159384
N        0.4334999563    0.6039050378    0.5875674729
C        1.2658566682   -0.4172604927    0.9484593006
O        0.9242208379   -1.5694563229    1.1202821396
C        2.7018725866    0.0193897329    1.0655045926
C        3.8016189194   -0.8950316490    0.5692389055
C        3.4862480592    0.3848585041   -0.1792615968
C        2.8826618299    0.3258956321   -1.5786678376
H        2.9106046957    0.6100424021    1.9522247315
H        4.2055654478    1.1950584306   -0.0779856351
H       -4.6581681604    1.0494352714   -0.4776786569
H       -3.0154603884    2.9087303770   -0.7644310363
H       -1.4125118595   -1.4088208661    0.8950502237
H        0.8610097437    1.4973547986    0.4365792441
H        4.7247735545   -0.9353911768    1.1420984254
H        3.5083419447   -1.8410582892    0.1179266383
H        2.2012216991   -0.5260215066   -1.6945755122
H        2.3195411408    1.2404551306   -1.7998003188
H        3.6703969435    0.2253542987   -2.3346362423
C       -4.1200041056   -1.5052281191    0.4293200081
H       -4.8813093762   -1.2591099904    1.1786117237
H       -4.6343523714   -1.7472236320   -0.5079731588
H       -3.6000133761   -2.4096027714    0.7665814468
28   
Iteration 17 Energy -0.18186264
C       -3.1602759204   -0.3452756725    0.2361338981
C       -3.6107921345    0.8900764144   -0.2417378283
C       -2.6907129775    1.9326637519   -0.4064461477
N       -1.3822972074    1.8048007077   -0.1274210939
C       -0.9348386123    0.6305956101    0.3259195873
C       -1.7929648345   -0.4674065162    0.5246824476
N        0.4331755362    0.6013937438    0.5881849270
C        1.2654733911   -0.4207329474    0.9461617225
O        0.9247927547   -1.5737982813    1.1138107034
C        2.7012730436    0.0160680228    1.0654331559
C        3.8017709924   -0.8965305119    0.5666691794
C        3.4864286859    0.3859674699   -0.1775227400
C        2.8838723033    0.3321338380   -1.5777482274
H        2.9093301451    0.6040320278    1.9540681433
H        4.2047083793    1.1966634041   -0.0729406269
H       -4.6565373808    1.0481622483   -0.4822840071
H       -3.0125546700    2.9053668413   -0.7747956136
H       -1.4144626932   -1.4079582347    0.9020745331
H        0.8609979591    1.4949684107    0.4393068092
H        4.7242929282   -0.9386026834    1.1404409351
H        3.5090931241   -1.8412172387    0.1121503878
H        2.2032633258   -0.5198976649   -1.6977058765
H        2.3202265001    1.2471882527   -1.7954762125
H        3.6722744445    0.2353042012   -2.3335131419
C       -4.1221898080   -1.5037166524    0.4345175686
H       -4.8836293049   -1.2539914270    1.1824789134
H       -4.6362170187   -1.7485367475   -0.5022204683
H       -3.6034959341   -2.4075141474    0.7753736236
28   
Iteration 18 Energy -0.18187526
C       -3.1610044484   -0.3452841237    0.2381059388
C       -3.6097376863    0.8879553368   -0.2467644153
C       -2.6884821997    1.9288850612   -0.4159869545
N       -1.3803844974    1.8011181400   -0.1349754724
C       -0.9341334314    0.6287925920    0.3244628901
C       -1.7940100588   -0.4668796485    0.5285106338
N        0.4333933118    0.5993601138    0.5890460200
C        1.2647844367   -0.4249489257    0.9426786515
O        0.9245348400   -1.5790200930    1.1040306809
C        2.7005016487    0.0111289277    1.0653705782
C        3.8013960684   -0.8992745275    0.5628720963
C        3.4868265429    0.3871198949   -0.1749534605
C        2.8853052886    0.3409723694   -1.5759822796
H        2.9079185506    0.5948772052    1.9569179560
H        4.2043037444    1.1978855743   -0.0655282771
H       -4.6550865078    1.0458348361   -0.4891439214
H       -3.0090470725    2.9000077213   -0.7895832429
H       -1.4169887870   -1.4056506754    0.9118287476
H        0.8617211740    1.4931433660    0.4431830705
H        4.7230943142   -0.9445494123    1.1377256558
H        3.5088465473   -1.8416735458    0.1035423352
H        2.2053057520   -0.5107860123   -1.7012572906
H        2.3213429378    1.2569815812   -1.7888310877
H        3.6743113297    0.2488794878   -2.3317113136
C       -4.1242588900   -1.5018158312    0.4419420603
H       -4.8859886418   -1.2474189899    1.1880301750
H       -4.6377847857   -1.7511339786   -0.4938853683
H       -3.6066744974   -2.4043002522    0.7879500899
28   
Iteration 19 Energy -0.18189418
C       -3.1617228914   -0.3454085155    0.2409234909
C       -3.6077476298    0.8848116643   -0.2538823274
C       -2.6851698508    1.9234993469   -0.4295790599
N       -1.3776814989    1.7955148997   -0.1455716897
C       -0.9334510357    0.6258116603    0.3225151206
C       -1.7953621928   -0.4667895261    0.5341759931
N        0.4334361365    0.5965019790    0.5903508278
C        1.2640095394   -0.4306124031    0.9376630274
O        0.9232365557   -1.5857856284    1.0897590612