28   
Iteration 0 Energy -0.17828768
C       -3.1118097900   -0.3797798900    0.1202512300
C       -3.6406057200    0.8957724500   -0.1053027000
C       -2.7853586000    1.9866431900   -0.0664133000
N       -1.4775350400    1.8998896900    0.1759766300
C       -0.9814203400    0.6802611500    0.3916608400
C       -1.7496310700   -0.4887775200    0.3762745800
N        0.3922527100    0.6891821500    0.6320104400
C        1.2385105800   -0.3601280600    0.8865129100
O        0.8886853400   -1.5287850400    0.8985887700
C        2.6584686000    0.0879281300    1.0811373700
C        3.7704587000   -0.8291628100    0.6959311800
C        3.4943871600    0.3816703500   -0.1496883000
C        2.9065009700    0.2301135200   -1.5288574600
H        2.8061490500    0.7465072300    1.9356439100
H        4.1916477100    1.2103146900   -0.0391243100
H       -4.6988177500    1.0345423900   -0.3072285400
H       -3.1662095800    2.9919586400   -0.2380018200
H       -1.2719589600   -1.4425586400    0.5585947200
H        0.7884677100    1.6193925900    0.5964107900
H        4.6592503600   -0.8469383700    1.3188376200
H        3.4677963100   -1.7959039000    0.3025909500
H        2.2189952500   -0.6213914000   -1.5739672300
H        2.3488285700    1.1245161000   -1.8301600000
H        3.6966201900    0.0600299100   -2.2683652800
C       -3.9852100300   -1.5989297900    0.0761599700
H       -4.8541702900   -1.4861333300    0.7338178600
H       -4.3673660600   -1.7662832200   -0.9378060200
H       -3.4369223600   -2.4937562000    0.3821251700
28   
Iteration 1 Energy -0.17995786
C       -3.1686398731   -0.3747625468    0.1136905858
C       -3.6425637258    0.9216969728   -0.1085634350
C       -2.7396293230    1.9748935395   -0.0616110611
N       -1.4360770731    1.8277506357    0.1858963239
C       -0.9792626278    0.5910839838    0.4003570548
C       -1.8107046394   -0.5390857398    0.3742574647
N        0.3969968081    0.5604105082    0.6444839611
C        1.2963307346   -0.4437405874    0.9065046981
O        1.0540517780   -1.6369888330    0.9448501391
C        2.6846613391    0.1030196878    1.0827900007
C        3.8569513418   -0.7426010508    0.7038310404
C        3.4924524738    0.4349637637   -0.1583306377
C        2.9100903393    0.2242642231   -1.5349960042
H        2.7921353034    0.7832699563    1.9255303640
H        4.1311030980    1.3114308498   -0.0649298293
H       -4.6927435318    1.1067753431   -0.3138022749
H       -3.0750295758    2.9967949194   -0.2302120262
H       -1.3886811746   -1.5176839669    0.5524876300
H        0.7828574348    1.4927207119    0.6036758270
H        4.7484111807   -0.6883432588    1.3213267438
H        3.6214178957   -1.7347905172    0.3273547249
H        2.2822421445   -0.6730007429   -1.5678594696
H        2.2914217633    1.0747556849   -1.8444530232
H        3.7074889137    0.0992875097   -2.2759151828
C       -4.0933956233   -1.5580677016    0.0617860822
H       -4.9590597041   -1.4112959243    0.7172617573
H       -4.4782984602   -1.7055374968   -0.9541765881
H       -3.5845236036   -2.4770259196    0.3663751110
28   
Iteration 2 Energy -0.18202955
C       -3.1723082420   -0.3821693609    0.1210824456
C       -3.6608296106    0.9087116534   -0.1035870616
C       -2.7803079701    1.9892098445   -0.0658867672
N       -1.4699114917    1.8543471615    0.1792759117
C       -0.9777402850    0.6312200911    0.3985797779
C       -1.8039424772   -0.5066630927    0.3765335524
N        0.3972412152    0.6150304781    0.6386684933
C        1.2734571292   -0.4052205607    0.8966934617
O        0.9870762972   -1.5866343728    0.9291345033
C        2.6818962144    0.0937864858    1.0797966758
C        3.8391530637   -0.7889729723    0.7065068778
C        3.5155704949    0.4100404906   -0.1514958605
C        2.9510057374    0.2366952263   -1.5497657249
H        2.8051241535    0.7651241514    1.9254646911
H        4.1772065899    1.2676046472   -0.0471343993
H       -4.7138041227    1.0757734174   -0.3058386194
H       -3.1353627971    3.0040199101   -0.2375026583
H       -1.3775952931   -1.4833332249    0.5555308418
H        0.7866374118    1.5408962342    0.5984565581
H        4.7255907009   -0.7591232456    1.3343503589
H        3.5878111539   -1.7753989863    0.3223741492
H        2.2962037604   -0.6400516663   -1.6181768178
H        2.3661711884    1.1130764560   -1.8532726852
H        3.7597652296    0.1007537031   -2.2769786271
C       -4.0826615099   -1.5861605420    0.0778220429
H       -4.9467336875   -1.4493644899    0.7380821743
H       -4.4682715139   -1.7442744884   -0.9361330137
H       -3.5604377899   -2.4987289437    0.3850297017
28   
Iteration 3 Energy -0.18230997
C       -3.1499550425   -0.3744443352    0.1268167334
C       -3.6811740235    0.8991722052   -0.1081510768
C       -2.8132236248    2.0001441703   -0.0730733860
N       -1.4962913563    1.8814052336    0.1744719838
C       -0.9888087954    0.6654469472    0.3973205088
C       -1.7749037055   -0.5038745367    0.3844878822
N        0.3819878683    0.6583194262    0.6404978421
C        1.2384589169   -0.3732355007    0.8915546002
O        0.9274507371   -1.5458126473    0.9267429455
C        2.6624075841    0.0868238559    1.0768688844
C        3.8066250748   -0.8361096360    0.7026507957
C        3.5179537221    0.3921316268   -0.1396574691
C        2.9885313945    0.2492555933   -1.5662679424
H        2.8040328139    0.7466317515    1.9265301868
H        4.1996530584    1.2336775458   -0.0367627064
H       -4.7363243417    1.0419693337   -0.3127043856
H       -3.1843695738    3.0084137963   -0.2495285571
H       -1.3526400324   -1.4829612335    0.5662964141
H        0.7754749447    1.5768679134    0.6082754610
H        4.6903108774   -0.8255935885    1.3366035396
H        3.5529956627   -1.8163277700    0.3017648551
H        2.3204154893   -0.6142526319   -1.6772342601
H        2.4318423941    1.1455626080   -1.8649917051
H        3.8169752186    0.1146240924   -2.2720107819
C       -4.0557226523   -1.5954792695    0.0963070697
H       -4.9149754166   -1.4606719198    0.7637833006
H       -4.4402784460   -1.7683862854   -0.9154475235
H       -3.5264454333   -2.5031029828    0.4124670778
28   
Iteration 4 Energy -0.18277435
C       -3.1658123563   -0.3822176061    0.1219746118
C       -3.6745366596    0.9003757831   -0.1120746110
C       -2.8021021563    1.9957514158   -0.0740295888
N       -1.4859147793    1.8864361002    0.1755795229
C       -0.9830567484    0.6693589012    0.3995478218
C       -1.7900654672   -0.4842098579    0.3800346484
N        0.3875592589    0.6496983038    0.6477509861
C        1.2489109603   -0.3799420689    0.8969204911
O        0.9429809171   -1.5543346688    0.9323045385
C        2.6691145694    0.0881534297    1.0793216061
C        3.8139067099   -0.8298352276    0.6989613556
C        3.5152873122    0.3970187557   -0.1395277887
C        2.9797050629    0.2471468863   -1.5603616411
H        2.8123942942    0.7469609518    1.9303066087
H        4.1967221127    1.2399603328   -0.0447371428
H       -4.7276622780    1.0547147084   -0.3203725530
H       -3.1732181340    3.0037289403   -0.2520057814
H       -1.3637463403   -1.4614925631    0.5641766485
H        0.7837662426    1.5688764083    0.6194426240
H        4.7017590431   -0.8163278319    1.3263648046
H        3.5633383916   -1.8089164782    0.2945967353
H        2.3174189548   -0.6218761494   -1.6597394146
H        2.4145404949    1.1380785985   -1.8590026622
H        3.8041361252    0.1164958108   -2.2712671301
C       -4.0685455637   -1.6039195998    0.0924099716
H       -4.9285518420   -1.4703296349    0.7589649849
H       -4.4507739215   -1.7805283935   -0.9196443550
H       -3.5375509037   -2.5086315598    0.4117150469
28   
Iteration 5 Energy -0.18279707
C       -3.1661589334   -0.3813924454    0.1219113302
C       -3.6650927588    0.9038156332   -0.1143172074
C       -2.7946396870    1.9990208274   -0.0792191048
N       -1.4817025871    1.8675953967    0.1739315292
C       -0.9841825590    0.6486167361    0.4013920282
C       -1.7943154548   -0.5024689840    0.3840508820
N        0.3872225559    0.6322657942    0.6509888136
C        1.2557129461   -0.3933505666    0.8981488808
O        0.9579452480   -1.5701914033    0.9330543103
C        2.6714322071    0.0862891546    1.0794453659
C        3.8269638003   -0.8156287129    0.7004462356
C        3.5114249144    0.4029302311   -0.1414729250
C        2.9727238358    0.2489220757   -1.5587871212
H        2.8089430781    0.7460828777    1.9310184060
H        4.1869332142    1.2509873209   -0.0490521375
H       -4.7178809945    1.0602629509   -0.3236909197
H       -3.1573839530    3.0096943621   -0.2590993230
H       -1.3751140488   -1.4818326132    0.5711213570
H        0.7797494239    1.5541542264    0.6227454499
H        4.7158868614   -0.7894675011    1.3255897375
H        3.5886309367   -1.7974337149    0.2958279983
H        2.3195507743   -0.6271548757   -1.6544787807
H        2.3963207538    1.1332948336   -1.8553585295
H        3.7955216684    0.1278877868   -2.2731435749
C       -4.0797506073   -1.5930293741    0.0909587765
H       -4.9402852897   -1.4509715817    0.7549557540
H       -4.4608484546   -1.7671054063   -0.9219876136
H       -3.5576035284   -2.5015993824    0.4126306863
28   
Iteration 6 Energy -0.18283258
C       -3.1656613748   -0.3779320296    0.1221882827
C       -3.6755911975    0.9022881317   -0.1185577738
C       -2.7989126361    1.9930879065   -0.0831480984
N       -1.4849474923    1.8711030182    0.1707411186
C       -0.9819014436    0.6552280006    0.4017368364
C       -1.7932168042   -0.4951732790    0.3857829018
N        0.3890086441    0.6407076364    0.6527129735
C        1.2532582330   -0.3885914619    0.8975407053
O        0.9511444611   -1.5642689839    0.9292335554
C        2.6711159332    0.0842263708    1.0803216177
C        3.8215188777   -0.8239142585    0.6979135726
C        3.5129336063    0.4000364265   -0.1394897727
C        2.9748922367    0.2528631212   -1.5583943762
H        2.8126163986    0.7395853057    1.9344840452
H        4.1947884562    1.2428185171   -0.0455938624
H       -4.7283693288    1.0568228994   -0.3290336247
H       -3.1620123155    3.0032162955   -0.2653938491
H       -1.3744801837   -1.4741961893    0.5755039082
H        0.7826023464    1.5618178222    0.6258006705
H        4.7111176699   -0.8045435859    1.3224762299
H        3.5787738722   -1.8027472967    0.2885303621
H        2.3179485789   -0.6200123073   -1.6582637351
H        2.4027034516    1.1408842847   -1.8522781243
H        3.7979827800    0.1309928569   -2.2723336084
C       -4.0732767113   -1.5948416607    0.0947796735
H       -4.9346005080   -1.4551248413    0.7582907450
H       -4.4527777968   -1.7743669319   -0.9178013673
H       -3.5466543776   -2.4997722207    0.4198613232
28   
Iteration 7 Energy -0.18284971
C       -3.1639410982   -0.3818556975    0.1237933907
C       -3.6692864744    0.8995573781   -0.1220640057
C       -2.7964558515    1.9944544228   -0.0903631785
N       -1.4821547755    1.8774772653    0.1655860403
C       -0.9833849515    0.6608604544    0.4008103533
C       -1.7905388686   -0.4926466737    0.3892103952
N        0.3864531575    0.6436079826    0.6545975532
C        1.2497301578   -0.3863594487    0.8967758538
O        0.9460674800   -1.5615675168    0.9244507950
C        2.6686071508    0.0831337962    1.0814240395
C        3.8144306856   -0.8303348741    0.6936700987
C        3.5120344907    0.4008440304   -0.1365425546
C        2.9760551603    0.2595404303   -1.5577323260
H        2.8131171705    0.7330117055    1.9390446335
H        4.1992996215    1.2389543046   -0.0405449717
H       -4.7216362993    1.0532789528   -0.3347814204
H       -3.1629565917    3.0024994107   -0.2772996825
H       -1.3689285803   -1.4696321634    0.5839568438
H        0.7812336724    1.5637284140    0.6297617767
H        4.7047722823   -0.8181190241    1.3175306856
H        3.5683549857   -1.8057067056    0.2778013289
H        2.3178086665   -0.6118666537   -1.6627825307
H        2.4059877188    1.1498739353   -1.8487892466
H        3.8003172887    0.1393506519   -2.2706804215
C       -4.0725757900   -1.5992251854    0.1003038926
H       -4.9345501305   -1.4561643622    0.7623174678
H       -4.4504631033   -1.7830481190   -0.9120953366
H       -3.5473938893   -2.5034533096    0.4302508754
28   
Iteration 8 Energy -0.18286751
C       -3.1660833160   -0.3811998068    0.1249460689
C       -3.6686457203    0.9001452843   -0.1258852336
C       -2.7936285821    1.9928102532   -0.0971255800
N       -1.4803045861    1.8713922670    0.1607045848
C       -0.9832284557    0.6548980122    0.4004660513
C       -1.7938706650   -0.4960376404    0.3922940453
N        0.3865747301    0.6374154690    0.6558477834
C        1.2513053361   -0.3926061203    0.8944305491
O        0.9491057778   -1.5684010090    0.9182664697
C        2.6690497005    0.0790097166    1.0811512145
C        3.8188219284   -0.8280527314    0.6924246667
C        3.5119749821    0.4029319737   -0.1356051521
C        2.9763606982    0.2652227921   -1.5567123031
H        2.8110191956    0.7262710115    1.9413002587
H        4.1980854619    1.2417039667   -0.0369554547
H       -4.7205732212    1.0551844015   -0.3400342461
H       -3.1567244029    3.0014117719   -0.2876500982
H       -1.3751638311   -1.4733357307    0.5913936741
H        0.7809559825    1.5580959581    0.6326192770
H        4.7088805012   -0.8135145674    1.3165292399
H        3.5774960951   -1.8030574108    0.2730886197
H        2.3218720982   -0.6085895171   -1.6646229697
H        2.4021721638    1.1540514383   -1.8442099330
H        3.8008232707    0.1515333237   -2.2704473575
C       -4.0773759738   -1.5959768531    0.1048361213
H       -4.9399344426   -1.4484553581    0.7650687872
H       -4.4544160326   -1.7827239713   -0.9073536990
H       -3.5545454363   -2.4999335413    0.4388449722
28   
Iteration 9 Energy -0.18288033
C       -3.1671571210   -0.3812608683    0.1273926004
C       -3.6669777382    0.8989313247   -0.1340653818
C       -2.7896743706    1.9896665319   -0.1113436529
N       -1.4773577978    1.8661687078    0.1502546011
C       -0.9822634428    0.6507107015    0.3994245364
C       -1.7960722019   -0.4979635893    0.3985661443
N        0.3869348907    0.6332340915    0.6586103889
C        1.2516932954   -0.3983712509    0.8909173348
O        0.9508288961   -1.5746991854    0.9063693147
C        2.6687948324    0.0731125105    1.0818703681
C        3.8186731603   -0.8307773897    0.6872906477
C        3.5120119781    0.4057330202   -0.1322717432
C        2.9765571573    0.2776400939   -1.5540803110
H        2.8102212447    0.7132500986    1.9474686057
H        4.2003654844    1.2420139880   -0.0281135633
H       -4.7181978433    1.0543955407   -0.3514679218
H       -3.1497150610    2.9978468765   -0.3097277861
H       -1.3803706854   -1.4746459268    0.6066502637
H        0.7813984178    1.5540900260    0.6386286889
H        4.7088827760   -0.8203506715    1.3112277182
H        3.5783495636   -1.8024030366    0.2596783736
H        2.3244982786   -0.5971600088   -1.6683333742
H        2.3996079975    1.1669159982   -1.8345775876
H        3.8010819759    0.1719236824   -2.2689516647
C       -4.0808692160   -1.5940188479    0.1146351507
H       -4.9448595416   -1.4394560624    0.7713602696
H       -4.4556756380   -1.7880784716   -0.8970127404
H       -3.5607060934   -2.4962545061    0.4572111158
28   
Iteration 10 Energy -0.18289801
C       -3.1696126438   -0.3816075125    0.1313120640
C       -3.6653182960    0.8970379955   -0.1450393470
C       -2.7842462799    1.9847460051   -0.1310612876
N       -1.4730796738    1.8597789638    0.1352355712
C       -0.9819086050    0.6454407654    0.3973314863
C       -1.7997667016   -0.5002455435    0.4072673359
N        0.3863178458    0.6266023256    0.6615960875
C        1.2519302420   -0.4063506886    0.8847708628
O        0.9505349698   -1.5826953156    0.8878405008
C        2.6685053496    0.0639666250    1.0821787713
C        3.8195607786   -0.8349136437    0.6804775303
C        3.5132064914    0.4091546974   -0.1274900181
C        2.9791956241    0.2955781669   -1.5509397675
H        2.8084672740    0.6943977972    1.9551252428
H        4.2035121188    1.2426964680   -0.0146038465
H       -4.7155105588    1.0534719142   -0.3667263282
H       -3.1403584032    2.9920846992   -0.3405006468
H       -1.3879183660   -1.4758193843    0.6279149016
H        0.7809843081    1.5475336453    0.6462885586
H        4.7092181543   -0.8297089964    1.3052516626
H        3.5814699196   -1.8021201551    0.2417618792
H        2.3305824701   -0.5803460583   -1.6756729030
H        2.3987972965    1.1857072997   -1.8214415189
H        3.8044994268    0.2014837791   -2.2665271629
C       -4.0868973918   -1.5915231695    0.1293554982
H       -4.9525858157   -1.4269362488    0.7813832320
H       -4.4590434807   -1.7958833704   -0.8812489745
H       -3.5705329034   -2.4913376674    0.4837710092
28   
Iteration 11 Energy -0.18292675
C       -3.1723398278   -0.3823770240    0.1370327826
C       -3.6624339902    0.8937434768   -0.1604287637
C       -2.7765571059    1.9776369338   -0.1590150282
N       -1.4667968796    1.8520801757    0.1137143047
C       -0.9811349460    0.6395973638    0.3940420115
C       -1.8039408321   -0.5022536903    0.4194980662
N        0.3855820202    0.6187746163    0.6655203100
C        1.2511105210   -0.4169259576    0.8755672749
O        0.9494191213   -1.5931474482    0.8609250355
C        2.6672697912    0.0507283355    1.0823462955
C        3.8193569754   -0.8419642299    0.6704249093
C        3.5146178165    0.4134030202   -0.1204828434
C        2.9828109469    0.3211479199   -1.5462992326
H        2.8053688238    0.6674064019    1.9653405317
H        4.2072352376    1.2431589554    0.0053776775
H       -4.7112007549    1.0510926994   -0.3881202849
H       -3.1279368164    2.9832408850   -0.3841932345
H       -1.3967845738   -1.4756740323    0.6579091501
H        0.7810619223    1.5394322360    0.6570063019
H        4.7079217785   -0.8452862756    1.2967757720
H        3.5833110990   -1.8025950164    0.2163993742
H        2.3382948343   -0.5554934445   -1.6863975871
H        2.3985038770    1.2129270159   -1.8025994926
H        3.8093068169    0.2427891042   -2.2624071226
C       -4.0942141556   -1.5886286088    0.1505446650
H       -4.9622118868   -1.4102612729    0.7958429563
H       -4.4627545094   -1.8077529865   -0.8582884803
H       -3.5828622244   -2.4846057878    0.5215749348
28   
Iteration 12 Energy -0.18280234
C       -3.1618878425   -0.3863323193    0.1406306973
C       -3.6552245723    0.8865225275   -0.1660898982
C       -2.7801356050    1.9794929948   -0.1719774620
N       -1.4699402363    1.8647489471    0.1037415649
C       -0.9801686273    0.6559704423    0.3923643003
C       -1.7927098713   -0.4927639851    0.4257365427
N        0.3854674995    0.6418698905    0.6674800794
C        1.2392502659   -0.4045297012    0.8704330847
O        0.9232385610   -1.5767599993    0.8446144435
C        2.6606982967    0.0442347599    1.0827724061
C        3.7995296294   -0.8619360296    0.6621797030
C        3.5137018269    0.4060510411   -0.1160394933
C        2.9820758396    0.3322173908   -1.5432266399
H        2.8065030085    0.6515837273    1.9709362965
H        4.2161614248    1.2262347121    0.0177225593
H       -4.7045643585    1.0354697538   -0.3966560775
H       -3.1397356737    2.9804159925   -0.4049030866
H       -1.3763280022   -1.4604228412    0.6723559803
H        0.7836324732    1.5612684139    0.6635992416
H        4.6873640955   -0.8847478676    1.2892021047
H        3.5488569648   -1.8148047768    0.1996690195
H        2.3274310762   -0.5355587591   -1.6914830690
H        2.4087042360    1.2330979690   -1.7923153950
H        3.8083092777    0.2501452631   -2.2592395016
C       -4.0774625926   -1.5976607694    0.1608452382
H       -4.9477010035   -1.4192969989    0.8031383666
H       -4.4427052423   -1.8258843212   -0.8471663031
H       -3.5623578128   -2.4884321508    0.5392854749
28   
Iteration 13 Energy -0.18289425
C       -3.1661203932   -0.3844461359    0.1381469293
C       -3.6590300060    0.8903637343   -0.1609353408
C       -2.7799396907    1.9800592159   -0.1616322682
N       -1.4696008579    1.8609793753    0.1114660487
C       -0.9808777332    0.6501604009    0.3932617805
C       -1.7969102279   -0.4962984532    0.4208062955
N        0.3854005573    0.6329242083    0.6654827512
C        1.2441899739   -0.4084388162    0.8735826743
O        0.9340587854   -1.5823886686    0.8556030234
C        2.6634886833    0.0487022792    1.0823807833
C        3.8088116658   -0.8519831197    0.6681561944
C        3.5138487889    0.4082277930   -0.1190970890
C        2.9817673291    0.3232344752   -1.5454220969
H        2.8057973942    0.6621835970    1.9669020634
H        4.2122112941    1.2327985396    0.0090315095
H       -4.7083998252    1.0428837295   -0.3890482161
H       -3.1368832506    2.9833280729   -0.3884713548
H       -1.3835512717   -1.4668093525    0.6610013156
H        0.7825394262    1.5527757237    0.6582850177
H        4.6971075230   -0.8639663684    1.2948136247
H        3.5654172454   -1.8095888147    0.2115927233
H        2.3311514254   -0.5485156621   -1.6879445256
H        2.4038688852    1.2197856138   -1.7996114187
H        3.8079247467    0.2408188101   -2.2614780970
C       -4.0836152528   -1.5942812679    0.1530394416
H       -4.9524501153   -1.4182141876    0.7978561009
H       -4.4510132691   -1.8161381419   -0.8556108766
H       -3.5691887632   -2.4879632307    0.5254532614
28   
Iteration 14 Energy -0.18292579
C       -3.1692607142   -0.3834070899    0.1375332617
C       -3.6607785587    0.8921350258   -0.1605082605
C       -2.7782472626    1.9789460712   -0.1600185939
N       -1.4681643894    1.8566457279    0.1127974906
C       -0.9810384327    0.6449377294    0.3936388130
C       -1.8004005262   -0.4992380123    0.4199999514
N        0.3854243573    0.6257361251    0.6654013262
C        1.2476423065   -0.4126744171    0.8746122165
O        0.9417663860   -1.5877735745    0.8584974285
C        2.6653623733    0.0498145026    1.0823367901
C        3.8142176640   -0.8468174660    0.6694845741
C        3.5141999344    0.4107943125   -0.1198628466
C        2.9822505093    0.3219358594   -1.5459332063
H        2.8055053891    0.6650349770    1.9660076533
H        4.2096615581    1.2380096441    0.0070073422
H       -4.7098582068    1.0471198497   -0.3883284450
H       -3.1324359332    2.9834172115   -0.3858522740
H       -1.3900883399   -1.4712466074    0.6591227498
H        0.7817497337    1.5459682402    0.6574743472
H        4.7026574864   -0.8542404600    1.2959961111
H        3.5746494082   -1.8060530807    0.2143349048
H        2.3347121645   -0.5523129348   -1.6871125135
H        2.4011029853    1.2160437278   -1.8013115542
H        3.8085832022    0.2414777082   -2.2620043245
C       -4.0889336593   -1.5914845513    0.1515925406
H       -4.9573150391   -1.4143913941    0.7967335593
H       -4.4569637542   -1.8118152593   -0.8571627900
H       -3.5759975675   -2.4863685054    0.5231340214
28   
Iteration 15 Energy -0.18293208
C       -3.1705926867   -0.3834096154    0.1373953845
C       -3.6603132336    0.8927957309   -0.1607427471
C       -2.7765578658    1.9786449129   -0.1602321678
N       -1.4666197018    1.8549010391    0.1127299318
C       -0.9809930740    0.6425969108    0.3936648724
C       -1.8018236993   -0.5006272314    0.4199985418
N        0.3854984381    0.6220488961    0.6655836227
C        1.2490843108   -0.4152438278    0.8749647969
O        0.9465582962   -1.5911891505    0.8593630923
C        2.6659063124    0.0500978917    1.0824602493
C        3.8163826518   -0.8445737700    0.6696365891
C        3.5138839662    0.4123863214   -0.1199094997
C        2.9818935934    0.3220659115   -1.5459214480
H        2.8049745826    0.6658516182    1.9659201970
H        4.2077067054    1.2410255498    0.0066266163
H       -4.7091642817    1.0490851015   -0.3886980561
H       -3.1296113058    2.9834937152   -0.3861641454
H       -1.3928163549   -1.4731319536    0.6592305658
H        0.7816751937    1.5423078607    0.6576443080
H        4.7049152115   -0.8502214722    1.2960439371
H        3.5785210566   -1.8043786293    0.2147820419
H        2.3360744408   -0.5535103905   -1.6867828765
H        2.3989454724    1.2149584358   -1.8014522595
H        3.8082890892    0.2430439968   -2.2620837539
C       -4.0917915727   -1.5903966474    0.1514129636
H       -4.9600279672   -1.4121826417    0.7964437376
H       -4.4599647079   -1.8103291049   -0.8573761175
H       -3.5800297944   -2.4859161008    0.5230718978
28   
Iteration 16 Energy -0.18293839
C       -3.1714551755   -0.3832242037    0.1381649404
C       -3.6608638175    0.8923240564   -0.1633313549
C       -2.7754656296    1.9769473332   -0.1645014502
N       -1.4656420600    1.8534322753    0.1094147592
C       -0.9807973405    0.6414731367    0.3931658810
C       -1.8028422784   -0.5008687280    0.4217875353
N        0.3854311156    0.6201479953    0.6662353192
C        1.2498313710   -0.4167641556    0.8738716062
O        0.9474563996   -1.5926825655    0.8553769505
C        2.6664783680    0.0486090749    1.0827500358
C        3.8165291594   -0.8458540331    0.6675174293
C        3.5146331414    0.4135177628   -0.1186192967
C        2.9829092352    0.3260066759   -1.5450441230
H        2.8054928816    0.6626719343    1.9673744299
H        4.2078612273    1.2423530545    0.0098383304
H       -4.7094400304    1.0489739073   -0.3922500760
H       -3.1275131631    2.9816053791   -0.3928421493
H       -1.3950924935   -1.4732449892    0.6637072700
H        0.7814709054    1.5404116027    0.6595431571
H        4.7048952073   -0.8535587186    1.2941547391
H        3.5780146984   -1.8045609174    0.2106729719
H        2.3376685077   -0.5496586906   -1.6880585476
H        2.3995489652    1.2191748361   -1.7986742860
H        3.8095197712    0.2490246270   -2.2611880348
C       -4.0933743314   -1.5898010433    0.1546669055
H       -4.9618527494   -1.4094953368    0.7987960235
H       -4.4610647550   -1.8120672731   -0.8537843235
H       -3.5823340621   -2.4846995839    0.5288656378
28   
Iteration 17 Energy -0.18294685
C       -3.1718381610   -0.3837208670    0.1395455847
C       -3.6591397021    0.8915232944   -0.1666463753
C       -2.7733078797    1.9759390440   -0.1709401771
N       -1.4637821284    1.8516871798    0.1044949318
C       -0.9806597288    0.6399865476    0.3922925803
C       -1.8034672858   -0.5017250999    0.4245982700
N        0.3851519811    0.6177552571    0.6670110697
C        1.2496589324   -0.4195356491    0.8717904904
O        0.9484275881   -1.5956517866    0.8492549396
C        2.6660524538    0.0457912150    1.0828532935
C        3.8163321292   -0.8474888208    0.6648166828
C        3.5147246199    0.4148516983   -0.1168535167
C        2.9838128214    0.3317901735   -1.5440220516
H        2.8045148282    0.6574744299    1.9691855482
H        4.2067267731    1.2442142692    0.0147095341
H       -4.7073808885    1.0483633865   -0.3969112278
H       -3.1244366957    2.9800956644   -0.4028758796
H       -1.3968942173   -1.4736129593    0.6705453924
H        0.7813948606    1.5378681376    0.6622591418
H        4.7042157915   -0.8574056968    1.2921208975
H        3.5777662679   -1.8048493032    0.2051577836
H        2.3396622693   -0.5440973888   -1.6906325701
H        2.3996877303    1.2252787213   -1.7947602310
H        3.8109420141    0.2582306316   -2.2599349588
C       -4.0954515646   -1.5891657099    0.1594890917
H       -4.9642386823   -1.4054115508    0.8022326938
H       -4.4624878607   -1.8145384505   -0.8485087028
H       -3.5859831965   -2.4834528627    0.5373379933
28   
Iteration 18 Energy -0.18295903
C       -3.1727255188   -0.3839429300    0.1415148340
C       -3.6581842366    0.8903318343   -0.1714820476
C       -2.7710039994    1.9736965121   -0.1799921003
N       -1.4618453456    1.8492842674    0.0974396273
C       -0.9801117337    0.6384323744    0.3911237213
C       -1.8047180179   -0.5018304741    0.4284823478
N        0.3852040988    0.6155770052    0.6681060015
C        1.2489614485   -0.4231891273    0.8683101605
O        0.9480867765   -1.5992546417    0.8397005380
C        2.6653209581    0.0409167364    1.0826391844
C        3.8162533633   -0.8502084978    0.6612885232
C        3.5151403153    0.4158632536   -0.1145121557
C        2.9856203630    0.3400710509   -1.5427061745
H        2.8029466193    0.6489693292    1.9715827787
H        4.2057262130    1.2456062545    0.0219468252
H       -4.7059882489    1.0473211524   -0.4036137035
H       -3.1207402506    2.9771505087   -0.4170176133
H       -1.3996902077   -1.4729203442    0.6801533636
H        0.7819369540    1.5354534878    0.6661958403
H        4.7032532780   -0.8630554222    1.2897864595
H        3.5779620863   -1.8056506606    0.1975017587
H        2.3426221626   -0.5357348420   -1.6948056238
H        2.4008000120    1.2343244000   -1.7890689160
H        3.8135238645    0.2713351817   -2.2582050365
C       -4.0977524158   -1.5883235159    0.1666474437
H       -4.9670479336   -1.4002864104    0.8074629254
H       -4.4638415038   -1.8185451645   -0.8405984559
H       -3.5897059801   -2.4811976938    0.5497296930
28   
Iteration 19 Energy -0.18297724
C       -3.1737175472   -0.3842819779    0.1443091806
C       -3.6566564391    0.8885159849   -0.1783136593
C       -2.7677830472    1.9704054544   -0.1928101618
N       -1.4592464546    1.8456313100    0.0874898068
C       -0.9796676383    0.6359634544    0.3894953879
C       -1.8063767582   -0.5024762627    0.4340938522
N        0.3849780202    0.6125958884    0.6696947329
C        1.2481372985   -0.4279030045    0.8633968774
O        0.9463597259   -1.6035016767    0.8258688622