28   
Iteration 0 Energy -0.17402008
C       -3.0850191600    0.0364396000    0.6340661400
C       -3.6167791500    0.3205392600   -0.6280678900
C       -2.7708427700    0.2983445700   -1.7269005100
N       -1.4691699500    0.0211164400   -1.6582341400
C       -0.9701176400   -0.2512653700   -0.4510195600
C       -1.7290211400   -0.2599225500    0.7235000000
N        0.3973515600   -0.5268037500   -0.4850322800
C        1.2303295800   -0.8970631600    0.5386067600
O        0.8605467000   -1.0625091100    1.6900579400
C        2.6694681200   -1.0844840000    0.1661788700
C        3.3070860300   -0.6619559700   -1.1308144700
C        3.6058711900    0.1066586600    0.1197165900
C        3.0839683600    1.5071316200    0.3050319400
H        3.0749551700   -1.9699224000    0.6475649000
H        4.5787364000   -0.0751073100    0.5717780600
H       -4.6709253000    0.5517034200   -0.7511291500
H       -3.1545233600    0.5129217200   -2.7228305100
H       -1.2521649100   -0.5015744500    1.6644591400
H        0.7668801000   -0.5132660100   -1.4252814600
H        4.0664784000   -1.3161427100   -1.5488855400
H        2.7069994800   -0.1553151700   -1.8842452500
H        2.1174896200    1.6446016800   -0.1911007700
H        2.9457193300    1.7340602100    1.3675027500
H        3.7825769600    2.2394196900   -0.1140859100
C       -3.9469637000    0.0642376900    1.8618954300
H       -4.1997041500    1.0964539400    2.1327527200
H       -4.8901592200   -0.4670532000    1.6959746000
H       -3.4390560200   -0.3910456600    2.7161281300
28   
Iteration 1 Energy -0.17592662
C       -3.1244593804    0.0432181376    0.6305649050
C       -3.6046962217    0.3252110472   -0.6516053772
C       -2.7142935083    0.2906544259   -1.7159714635
N       -1.4170147412    0.0029348905   -1.5916336693
C       -0.9552278003   -0.2695522520   -0.3682414523
C       -1.7730903242   -0.2630602306    0.7711852181
N        0.4141048325   -0.5538578650   -0.3655141827
C        1.2991354850   -0.9300238562    0.6137758938
O        1.0262928243   -1.1236644279    1.7855514192
C        2.7145323136   -1.0919977522    0.1438273182
C        3.2558173032   -0.6371496981   -1.1867897682
C        3.6290705735    0.1142312630    0.0571010448
C        3.1021896794    1.5058208912    0.3041349323
H        3.1644854397   -1.9793323033    0.5800133385
H        4.6327554532   -0.0593712505    0.4397167572
H       -4.6509594177    0.5639761797   -0.8177194811
H       -3.0553203684    0.5031500815   -2.7277661933
H       -1.3483235859   -0.5013428912    1.7358751029
H        0.7738327018   -0.5346911257   -1.3076487945
H        3.9943038518   -1.2723973005   -1.6675125830
H        2.5988643989   -0.1265651761   -1.8880934650
H        2.1024988884    1.6400650868   -0.1226403875
H        3.0337205834    1.7112953553    1.3779471024
H        3.7616520436    2.2553138619   -0.1471451194
C       -4.0339285922    0.0832230719    1.8259487611
H       -4.2888323448    1.1184871885    2.0824256018
H       -4.9740266743   -0.4421779090    1.6260554389
H       -3.5630728929   -0.3721997508    2.7017456367
28   
Iteration 2 Energy -0.17803300
C       -3.1375540708    0.0395855314    0.6340340243
C       -3.6184563316    0.3057703983   -0.6516342374
C       -2.7498628739    0.2716262547   -1.7453275030
N       -1.4443465560   -0.0107935107   -1.6162430002
C       -0.9398331612   -0.2731982260   -0.4059752179
C       -1.7717202180   -0.2509967535    0.7298761755
N        0.4284670324   -0.5478743745   -0.4024648352
C        1.2928785328   -0.9008198772    0.5994925795
O        0.9428391881   -1.0594725784    1.7518128034
C        2.7269038340   -1.1040895294    0.1688279586
C        3.2305610450   -0.6424969732   -1.1840023402
C        3.6469385500    0.0978119781    0.0674764486
C        3.1536236387    1.5127250725    0.3309811935
H        3.1812678718   -1.9927972282    0.5970399944
H        4.6579540643   -0.0655482439    0.4353601992
H       -4.6658804389    0.5392615074   -0.8098643076
H       -3.1077725744    0.4757718612   -2.7531292895
H       -1.3609563514   -0.4632194516    1.7063913874
H        0.8043385958   -0.5278282910   -1.3310337078
H        3.9623351197   -1.2747748107   -1.6815807789
H        2.5586653052   -0.1265624624   -1.8657593804
H        2.1497410196    1.6876589379   -0.0730060683
H        3.1174177073    1.7139734328    1.4084048687
H        3.8259536370    2.2464932302   -0.1288901496
C       -4.0418023706    0.0771084436    1.8481388703
H       -4.3036912620    1.1104338809    2.1036168271
H       -4.9758643194   -0.4648312208    1.6596568325
H       -3.5621339353   -0.3727192491    2.7253872402
28   
Iteration 3 Energy -0.17860030
C       -3.1175494216    0.0346116893    0.6215858585
C       -3.6332519520    0.3118393576   -0.6498074242
C       -2.7603251625    0.2816221814   -1.7461635103
N       -1.4514734238   -0.0015402352   -1.6228259951
C       -0.9538045854   -0.2680630991   -0.4112656558
C       -1.7501297668   -0.2576545619    0.7517045608
N        0.4123458599   -0.5393909093   -0.4096285941
C        1.2646871295   -0.8864726464    0.6020616046
O        0.9244065594   -1.0377398644    1.7562971487
C        2.7064246041   -1.1051120239    0.1764171274
C        3.2342807054   -0.6657829067   -1.1844017611
C        3.6343578436    0.0917674037    0.0655489295
C        3.1624460949    1.5226646123    0.3214788556
H        3.1570138672   -1.9895628541    0.6165396410
H        4.6434919898   -0.0619081567    0.4427672396
H       -4.6816856169    0.5470021085   -0.7947193528
H       -3.1199565098    0.4921400072   -2.7520760508
H       -1.3445683134   -0.4622644906    1.7328717814
H        0.8009718373   -0.4956208939   -1.3285207634
H        3.9820901867   -1.3013830006   -1.6541959073
H        2.5810499865   -0.1562314723   -1.8879525581
H        2.1651088662    1.7188664457   -0.0902237913
H        3.1258807648    1.7281203760    1.3985676412
H        3.8529208138    2.2422849235   -0.1345654649
C       -4.0293983627    0.0590026948    1.8383414397
H       -4.2952787006    1.0885900000    2.1037996129
H       -4.9582240039   -0.4899280095    1.6425699394
H       -3.5518209973   -0.3996588216    2.7133818363
28   
Iteration 4 Energy -0.17888494
C       -3.1294042971    0.0377045574    0.6329972838
C       -3.6313169347    0.3201382768   -0.6427760450
C       -2.7573172817    0.2935573625   -1.7372056796
N       -1.4474766950    0.0101557627   -1.6363683232
C       -0.9538066369   -0.2638125191   -0.4257681647
C       -1.7600781803   -0.2547686395    0.7284172436
N        0.4114825258   -0.5392969341   -0.4152892736
C        1.2614325153   -0.8924747514    0.5965875866
O        0.9267826616   -1.0471415923    1.7523393555
C        2.7039721419   -1.1057367676    0.1750866038
C        3.2644470291   -0.6732343673   -1.1757767468
C        3.6317186821    0.0913107292    0.0757305585
C        3.1429709273    1.5186752359    0.3046805456
H        3.1463478314   -1.9885209569    0.6266864684
H        4.6351559719   -0.0575662825    0.4697135083
H       -4.6788049853    0.5582392432   -0.7922032486
H       -3.1227179063    0.5106031955   -2.7396021230
H       -1.3381124228   -0.4697883969    1.7012243734
H        0.8054482874   -0.4844130754   -1.3325677001
H        4.0267360871   -1.3060847129   -1.6246874340
H        2.6285148038   -0.1663141719   -1.8970819409
H        2.1543939367    1.6947967823   -0.1357990765
H        3.0761603347    1.7359451753    1.3776521516
H        3.8372008351    2.2404405894   -0.1417042909
C       -4.0313030989    0.0553508516    1.8557916914
H       -4.2931868475    1.0835637603    2.1308382616
H       -4.9623866400   -0.4908021932    1.6642882325
H       -3.5468424646   -0.4103283276    2.7223822579
28   
Iteration 5 Energy -0.17896045
C       -3.1222352376    0.0395514211    0.6313316730
C       -3.6158028727    0.3171981022   -0.6479535388
C       -2.7456349791    0.2881861645   -1.7438995339
N       -1.4382989803    0.0022145471   -1.6238633382
C       -0.9489148706   -0.2688749761   -0.4106381787
C       -1.7563006571   -0.2566974009    0.7420988531
N        0.4167323524   -0.5459269323   -0.4009356750
C        1.2736640146   -0.8988475242    0.6054641452
O        0.9368799894   -1.0552930360    1.7606485598
C        2.7111935180   -1.1098993011    0.1755706679
C        3.2415743122   -0.6593510096   -1.1791797469
C        3.6318972361    0.0908398494    0.0730457221
C        3.1342113412    1.5118702237    0.3099185579
H        3.1598848519   -1.9966131649    0.6131972417
H        4.6435032744   -0.0569884252    0.4460273326
H       -4.6633113364    0.5550561961   -0.7990611239
H       -3.1052944518    0.5015393470   -2.7491455725
H       -1.3375913319   -0.4723119874    1.7160528362
H        0.8076045769   -0.4889619909   -1.3205113434
H        3.9974089111   -1.2816590377   -1.6525883905
H        2.5868773253   -0.1464130603   -1.8794460319
H        2.1390327711    1.6770768174   -0.1193632159
H        3.0770567364    1.7271638789    1.3836595057
H        3.8162443757    2.2406597214   -0.1435251028
C       -4.0315999901    0.0657262678    1.8465340022
H       -4.2919177346    1.0961024813    2.1151393502
H       -4.9633346750   -0.4777818343    1.6514874072
H       -3.5535182987   -0.3973675251    2.7175209609
28   
Iteration 6 Energy -0.17898542
C       -3.1242588429    0.0402843777    0.6266488251
C       -3.6307859175    0.3181573414   -0.6474305012
C       -2.7553653046    0.2853469933   -1.7394565876
N       -1.4471983301   -0.0007111452   -1.6243498998
C       -0.9484491632   -0.2716824140   -0.4148604622
C       -1.7580786847   -0.2564320308    0.7366851684
N        0.4173305375   -0.5483359991   -0.4099272927
C        1.2712539210   -0.8993070680    0.5997009210
O        0.9295195215   -1.0539655341    1.7534212499
C        2.7109747158   -1.1096914464    0.1750350155
C        3.2487169802   -0.6633868276   -1.1780958704
C        3.6316475184    0.0920471973    0.0741491171
C        3.1387563359    1.5151085290    0.3141348654
H        3.1588795157   -1.9954147616    0.6154205520
H        4.6425479796   -0.0545667608    0.4494792710
H       -4.6785222973    0.5561751360   -0.7961544968
H       -3.1146235121    0.4974537345   -2.7451194585
H       -1.3426093276   -0.4699113731    1.7122735059
H        0.8087397043   -0.4884565438   -1.3287541360
H        4.0097720327   -1.2848951271   -1.6443273495
H        2.5980229947   -0.1538233322   -1.8844758506
H        2.1457336431    1.6886409146   -0.1168502583
H        3.0801534927    1.7268491877    1.3885795239
H        3.8258893675    2.2420378924   -0.1346820155
C       -4.0273373896    0.0664005660    1.8470071742
H       -4.2860106175    1.0967318748    2.1172585620
H       -4.9599934257   -0.4773453050    1.6568239607
H       -3.5446953208   -0.3971102583    2.7154524785
28   
Iteration 7 Energy -0.17900621
C       -3.1232302439    0.0397770705    0.6306769413
C       -3.6241175990    0.3178625310   -0.6457880489
C       -2.7543047601    0.2862460002   -1.7427639247
N       -1.4461931699   -0.0011231342   -1.6287935669
C       -0.9516218153   -0.2722457500   -0.4177113516
C       -1.7564792215   -0.2575482597    0.7374121488
N        0.4137684569   -0.5497558662   -0.4117844314
C        1.2667078139   -0.9007144288    0.5985681543
O        0.9296098055   -1.0568732726    1.7532932951
C        2.7074273521   -1.1093592689    0.1735016712
C        3.2517179479   -0.6664653410   -1.1788451591
C        3.6280365295    0.0930253071    0.0732716236
C        3.1372789594    1.5174688557    0.3135137177
H        3.1552111715   -1.9941505508    0.6158014406
H        4.6383757578   -0.0520108117    0.4507124947
H       -4.6715615908    0.5571615125   -0.7940013598
H       -3.1166020884    0.4996944362   -2.7470554630
H       -1.3387777994   -0.4709139622    1.7121038563
H        0.8068253940   -0.4865745179   -1.3293253354
H        4.0171163514   -1.2873674313   -1.6389028305
H        2.6049990419   -0.1593989394   -1.8905413078
H        2.1462133715    1.6951662189   -0.1203894170
H        3.0759281189    1.7277394340    1.3881585231
H        3.8279640163    2.2432759442   -0.1317524024
C       -4.0284407785    0.0661267643    1.8501258648
H       -4.2862158084    1.0965635282    2.1207475698
H       -4.9613385141   -0.4766099082    1.6579813132
H       -3.5482865530   -0.3987983366    2.7193719792
28   
Iteration 8 Energy -0.17901719
C       -3.1220340160    0.0409622673    0.6300201024
C       -3.6225592575    0.3184109540   -0.6467614671
C       -2.7504453338    0.2849500618   -1.7415486185
N       -1.4425459037   -0.0027346463   -1.6286462887
C       -0.9498058560   -0.2732768955   -0.4168133904
C       -1.7556721097   -0.2571238078    0.7372810422
N        0.4153928847   -0.5517017288   -0.4086905692
C        1.2696398071   -0.9030083664    0.6004172942
O        0.9314936210   -1.0605988803    1.7547645513
C        2.7096714110   -1.1111033061    0.1746321994
C        3.2473316028   -0.6621335275   -1.1782793864
C        3.6282904732    0.0921603375    0.0750860823
C        3.1324995636    1.5145820249    0.3133590010
H        3.1584146550   -1.9971947691    0.6133750265
H        4.6404106772   -0.0518130818    0.4481894889
H       -4.6697457326    0.5581617927   -0.7963771210
H       -3.1118044900    0.4977696248   -2.7463066680
H       -1.3373767690   -0.4705876015    1.7117947247
H        0.8087586685   -0.4875738763   -1.3262652599
H        4.0117567571   -1.2794455627   -1.6446353393
H        2.5964852163   -0.1528363167   -1.8846405108
H        2.1410290551    1.6865021481   -0.1219375021
H        3.0690772596    1.7259898465    1.3876162161
H        3.8204884821    2.2426799239   -0.1322773566
C       -4.0270741577    0.0687573086    1.8491600306
H       -4.2837368667    1.0995935888    2.1193771183
H       -4.9606203915   -0.4728901106    1.6572620515
H       -3.5473090886   -0.3962995808    2.7184305560
28   
Iteration 9 Energy -0.17902087
C       -3.1221017927    0.0415434217    0.6298941482
C       -3.6236871752    0.3184789376   -0.6464478483
C       -2.7524512589    0.2842401621   -1.7418264030
N       -1.4447745413   -0.0040651386   -1.6272225648
C       -0.9498100542   -0.2746032828   -0.4161934996
C       -1.7560677143   -0.2572083061    0.7376523899
N        0.4154466475   -0.5532731646   -0.4098647906
C        1.2702250636   -0.9050955980    0.5987032764
O        0.9312556196   -1.0636769358    1.7526667684
C        2.7105359595   -1.1114249397    0.1732255785
C        3.2503543509   -0.6620005403   -1.1785180861
C        3.6281783356    0.0927903334    0.0754687039
C        3.1311600025    1.5146328306    0.3142081831
H        3.1593719592   -1.9974942823    0.6119229915
H        4.6402321016   -0.0503523967    0.4490660257
H       -4.6709584738    0.5584125796   -0.7952495931
H       -3.1135751220    0.4965438946   -2.7467788130
H       -1.3383292248   -0.4703705433    1.7124156648
H        0.8081166974   -0.4878931960   -1.3276827315
H        4.0167830732   -1.2778848085   -1.6434558595
H        2.6003661652   -0.1534156432   -1.8861934051
H        2.1408896727    1.6867372325   -0.1237237165
H        3.0644806283    1.7245279204    1.3885583162
H        3.8201544851    2.2436130101   -0.1284141297
C       -4.0264807840    0.0705708539    1.8493727457
H       -4.2819167780    1.1017402651    2.1194894109
H       -4.9607196151   -0.4700843724    1.6580773933
H       -3.5466680712   -0.3947904745    2.7184358549
28   
Iteration 10 Energy -0.17902239
C       -3.1209648003    0.0421128630    0.6297320157
C       -3.6231950781    0.3178774493   -0.6466294926
C       -2.7524750817    0.2821504679   -1.7424286609
N       -1.4447908783   -0.0064937374   -1.6284461092
C       -0.9493271173   -0.2760310193   -0.4173976539
C       -1.7549079876   -0.2569867003    0.7369508254
N        0.4158760136   -0.5549231108   -0.4114093277
C        1.2694948771   -0.9065986555    0.5981784377
O        0.9314306759   -1.0663828866    1.7522134500
C        2.7099860527   -1.1118817650    0.1727293003
C        3.2490681705   -0.6612177597   -1.1788153187
C        3.6266214338    0.0932226339    0.0756443620
C        3.1294187957    1.5147556267    0.3164924676
H        3.1594692377   -1.9981684056    0.6103155632
H        4.6392658659   -0.0491715819    0.4479235422
H       -4.6704360943    0.5580612621   -0.7951614294
H       -3.1141250828    0.4935907146   -2.7473748578
H       -1.3368604025   -0.4690584125    1.7118026054
H        0.8092047887   -0.4885930226   -1.3288268784
H        4.0165473593   -1.2754676047   -1.6442099866
H        2.5983747144   -0.1530144558   -1.8861129823
H        2.1398934967    1.6882297812   -0.1225963756
H        3.0611196281    1.7223982221    1.3911900103
H        3.8193303238    2.2444848427   -0.1234764921
C       -4.0246697056    0.0727387887    1.8497492549
H       -4.2787743756    1.1043212101    2.1195293459
H       -4.9596229416   -0.4669670975    1.6592222431
H       -3.5449417278   -0.3927898270    2.7187981589
28   
Iteration 11 Energy -0.17902438
C       -3.1202222222    0.0430910364    0.6300736002
C       -3.6229779203    0.3169236396   -0.6465689472
C       -2.7528651801    0.2787891441   -1.7428426635
N       -1.4451969836   -0.0103392541   -1.6300029703
C       -0.9499283206   -0.2781558350   -0.4185320625
C       -1.7541444472   -0.2565361229    0.7367520700
N        0.4151506199   -0.5573998933   -0.4123611867
C        1.2695253935   -0.9095950505    0.5963582462
O        0.9306785269   -1.0715326990    1.7498536908
C        2.7104844415   -1.1127049889    0.1710001558
C        3.2499367711   -0.6597314528   -1.1796744482
C        3.6255416250    0.0938408344    0.0760287236
C        3.1271368785    1.5146743390    0.3191926197
H        3.1607116430   -1.9993873287    0.6070046583
H        4.6387097036   -0.0472864970    0.4473672043
H       -4.6701213075    0.5575324929   -0.7950003554
H       -3.1152872200    0.4888594301   -2.7477987789
H       -1.3354286388   -0.4667873834    1.7117162292
H        0.8086801035   -0.4888851734   -1.3294665509
H        4.0195910593   -1.2713098390   -1.6450298687
H        2.5990705054   -0.1519212254   -1.8870765521
H        2.1397157118    1.6898335026   -0.1239751612
H        3.0537644506    1.7186952658    1.3942639602
H        3.8191960630    2.2458385216   -0.1150044513
C       -4.0232278634    0.0763407139    1.8506435228
H       -4.2749486101    1.1086146268    2.1199947446
H       -4.9594416523   -0.4614835687    1.6609335886
H       -3.5440929662   -0.3897794131    2.7197370088
28   
Iteration 12 Energy -0.17902660
C       -3.1190946449    0.0443457711    0.6303066980
C       -3.6226318231    0.3156494708   -0.6465637282
C       -2.7535026651    0.2751384888   -1.7434997863
N       -1.4458507046   -0.0140778143   -1.6309697377
C       -0.9497068355   -0.2798703399   -0.4194028105
C       -1.7530373655   -0.2554049355    0.7364151656
N        0.4153882869   -0.5590746801   -0.4136234508
C        1.2698588192   -0.9127242571    0.5945158454
O        0.9309430440   -1.0776043897    1.7475959274
C        2.7111002369   -1.1137103829    0.1692012754
C        3.2507249565   -0.6571451996   -1.1802546936
C        3.6247158069    0.0940314932    0.0772754312
C        3.1235572226    1.5135667605    0.3217377810
H        3.1617379318   -2.0011455581    0.6032455057
H        4.6381427930   -0.0462587211    0.4482405923
H       -4.6698326576    0.5562345738   -0.7946658041
H       -3.1166384133    0.4833387827   -2.7485870189
H       -1.3334076343   -0.4635757527    1.7114431635
H        0.8089337385   -0.4888675620   -1.3306119035
H        4.0218393643   -1.2661626546   -1.6465421112
H        2.5995455467   -0.1487547263   -1.8869462127
H        2.1388143410    1.6888159250   -0.1273437502
H        3.0429307957    1.7141133248    1.3969412951
H        3.8176348504    2.2468120190   -0.1056704027
C       -4.0210459321    0.0804755393    1.8515212957
H       -4.2701502673    1.1135071714    2.1204040839
H       -4.9586840627   -0.4552484433    1.6629217822
H       -3.5422745599   -0.3862060834    2.7205015944
28   
Iteration 13 Energy -0.17902992
C       -3.1170163458    0.0469113738    0.6303739037
C       -3.6230868093    0.3110105417   -0.6469903435
C       -2.7560341507    0.2650003295   -1.7452972386
N       -1.4481189491   -0.0230912021   -1.6333493762
C       -0.9494531240   -0.2828180015   -0.4214795595
C       -1.7507297201   -0.2517712609    0.7355579361
N        0.4159297915   -0.5607036917   -0.4166064894
C        1.2704901569   -0.9180719421    0.5901507929
O        0.9310998746   -1.0890537219    1.7422477670
C        2.7120399769   -1.1153223151    0.1644947009
C        3.2514331443   -0.6513188536   -1.1824331965
C        3.6235106557    0.0943583442    0.0788821287
C        3.1184243751    1.5112750713    0.3294901238
H        3.1635042003   -2.0045071137    0.5940845056
H        4.6371336075   -0.0456638084    0.4494231177
H       -4.6706708578    0.5504071239   -0.7943826807
H       -3.1209827430    0.4677679947   -2.7508377121
H       -1.3288969575   -0.4539714164    1.7109093904
H        0.8092018965   -0.4880412610   -1.3335696151
H        4.0240564892   -1.2563782116   -1.6513458293
H        2.5993644789   -0.1410900192   -1.8869825767
H        2.1393554171    1.6893513598   -0.1307898918
H        3.0236516995    1.7022192918    1.4052855797
H        3.8173021071    2.2487955850   -0.0824492535
C       -4.0163979486    0.0897424550    1.8531643348
H       -4.2601848394    1.1244763024    2.1203785546
H       -4.9569233393   -0.4419427683    1.6675685464
H       -3.5379919265   -0.3773723329    2.7220883977
28   
Iteration 14 Energy -0.17903356
C       -3.1147906470    0.0499866403    0.6303786277
C       -3.6248789734    0.3032128965   -0.6475892111
C       -2.7607773946    0.2501743688   -1.7479076757
N       -1.4521143314   -0.0349508247   -1.6371665878
C       -0.9496935288   -0.2852397696   -0.4248489729
C       -1.7477703400   -0.2456753964    0.7341073852
N        0.4163272507   -0.5599366784   -0.4212197044
C        1.2705120792   -0.9232655147    0.5837053049
O        0.9304023089   -1.1021491625    1.7344191263
C        2.7124510016   -1.1168899821    0.1577600161
C        3.2525483723   -0.6437187548   -1.1856820008
C        3.6227515565    0.0941708938    0.0807400864
C        3.1143932008    1.5081580412    0.3407132488
H        3.1642630216   -2.0084748535    0.5819825450
H        4.6357838796   -0.0472752095    0.4523561658
H       -4.6732455722    0.5398413334   -0.7939074732
H       -3.1287157677    0.4447555867   -2.7539756960
H       -1.3226230154   -0.4386397867    1.7099128038
H        0.8091466057   -0.4847560919   -1.3381917843
H        4.0257509863   -1.2455418881   -1.6577847844
H        2.6003488416   -0.1299781163   -1.8875485847
H        2.1427827758    1.6919321473   -0.1329960735
H        3.0024677937    1.6859626823    1.4171202531
H        3.8199072145    2.2503616541   -0.0510036157
C       -4.0105638598    0.1013867501    1.8554570999
H       -4.2481658826    1.1382224660    2.1200794506
H       -4.9544018206   -0.4259215631    1.6742478013
H       -3.5320856001   -0.3655539718    2.7244282520
28   
Iteration 15 Energy -0.17903888
C       -3.1116206582    0.0549062642    0.6300712885
C       -3.6289016965    0.2882604763   -0.6487980235
C       -2.7698121482    0.2234443016   -1.7524380522
N       -1.4595455683   -0.0551918603   -1.6439892303
C       -0.9506128790   -0.2880380226   -0.4309202134
C       -1.7430278456   -0.2341349472    0.7312765065
N        0.4167081794   -0.5559795013   -0.4291789814
C        1.2699488532   -0.9303246380    0.5724529601
O        0.9284090776   -1.1223894498    1.7206410742
C        2.7123378966   -1.1189944706    0.1458725547
C        3.2536978471   -0.6307210183   -1.1915591868
C        3.6221669679    0.0932537959    0.0834076160
C        3.1107375357    1.5026938650    0.3612906862
H        3.1642526621   -2.0147536116    0.5611088245
H        4.6337808448   -0.0524573219    0.4572228304
H       -4.6788360950    0.5189905283   -0.7932932471
H       -3.1431800034    0.4030599274   -2.7592883902
H       -1.3118769289   -0.4102535273    1.7076845073
H        0.8087218513   -0.4770229166   -1.3461974508
H        4.0264845731   -1.2284700404   -1.6694730086
H        2.6018042094   -0.1097974200   -1.8883951385
H        2.1500027630    1.6977686725   -0.1298336526
H        2.9754949744    1.6586727244    1.4384195110
H        3.8258399818    2.2513234777    0.0004035987
C       -4.0012588984    0.1206805862    1.8589171378
H       -4.2299813587    1.1608924434    2.1180466436
H       -4.9497855876   -0.4008670655    1.6856900723
H       -3.5219384053   -0.3443533382    2.7284447429
28   
Iteration 16 Energy -0.17904722
C       -3.1067869474    0.0628623184    0.6292260751
C       -3.6361059132    0.2627645879   -0.6504176848
C       -2.7852999222    0.1786388141   -1.7592576331
N       -1.4722466657   -0.0885573662   -1.6551438498
C       -0.9525868869   -0.2919438430   -0.4413669543
C       -1.7354616945   -0.2144916297    0.7258500777
N        0.4169119923   -0.5479195753   -0.4427191113
C        1.2681648803   -0.9411378693    0.5532601858
O        0.9238283901   -1.1551404445    1.6967355519
C        2.7114105352   -1.1221124036    0.1261325510
C        3.2555097996   -0.6089758813   -1.2007469195
C        3.6214396319    0.0910831196    0.0883200738
C        3.1067453565    1.4931771545    0.3960080520
H        3.1630194228   -2.0247493147    0.5265575988
H        4.6305568708   -0.0627847991    0.4655815671
H       -4.6886997977    0.4831562554   -0.7916279253
H       -3.1678277763    0.3330852815   -2.7668448472
H       -1.2942579753   -0.3622766264    1.7025650380
H        0.8078050191   -0.4620905691   -1.3595950928
H        4.0274247356   -1.2000834373   -1.6882340123
H        2.6049731803   -0.0751282219   -1.8890081321
H        2.1609445801    1.7070095562   -0.1159368179
H        2.9414199192    1.6158707120    1.4732723000
H        3.8340915487    2.2499616701    0.0792927468
C       -3.9863307534    0.1521095837    1.8638843335
H       -4.2026093610    1.1975459929    2.1124320893
H       -4.9412961665   -0.3620293250    1.7043965337
H       -3.5047258528   -0.3076457765    2.7349701437
28   
Iteration 17 Energy -0.17905567
C       -3.0954936716    0.0820044982    0.6263881669
C       -3.6529891155    0.2004011624   -0.6515307891
C       -2.8217254474    0.0695788887   -1.7708961690
N       -1.5022055792   -0.1693316412   -1.6785113050
C       -0.9574688078   -0.3008639705   -0.4659445412
C       -1.7178675382   -0.1665132026    0.7106049756
N        0.4169271867   -0.5267257241   -0.4750538362
C        1.2631303876   -0.9658830512    0.5056318301
O        0.9114127822   -1.2331178499    1.6356040321
C        2.7085933141   -1.1281177122    0.0781833281
C        3.2595164523   -0.5548828208   -1.2207781628
C        3.6194687887    0.0850428793    0.1010403882
C        3.0984689057    1.4674454765    0.4798390099
H        3.1592246808   -2.0466876854    0.4418152543
H        4.6228619121   -0.0895738619    0.4844528920
H       -4.7117550588    0.3952488409   -0.7837602971
H       -3.2258069841    0.1626822735   -2.7776057539
H       -1.2527964408   -0.2458454502    1.6845003880
H        0.8051301844   -0.4223986466   -1.3911270166
H        4.0298381645   -1.1281920129   -1.7314944038
H        2.6127527704    0.0108309614   -1.8867614808
H        2.1841557241    1.7269574722   -0.0671312904
H        2.8744389581    1.5152731996    1.5524671355
H        3.8476360397    2.2368052721    0.2586662868
C       -3.9513204904    0.2278502658    1.8723861919
H       -4.1414861210    1.2847491697    2.0920658139
H       -4.9192501586   -0.2710624330    1.7460466548
H       -3.4633807194   -0.2154762343    2.7484885323
28   
Iteration 18 Energy -0.17908090
C       -3.0981108281    0.0776361049    0.6262631499
C       -3.6518100543    0.2108144983   -0.6518767580
C       -2.8177429627    0.0899550804   -1.7703565308
N       -1.4988735142   -0.1523754791   -1.6769885560
C       -0.9576646278   -0.2963017729   -0.4642829819
C       -1.7211270575   -0.1742822832    0.7115566776
N        0.4160625990   -0.5256711932   -0.4709785360
C        1.2611390346   -0.9577116900    0.5137701570
O        0.9085322611   -1.2132567601    1.6461385559
C        2.7064920860   -1.1265884349    0.0883153657
C        3.2588018286   -0.5663182158   -1.2157796527
C        3.6206698823    0.0843500006    0.1002809375
C        3.1053968814    1.4727762106    0.4651172621
H        3.1551147699   -2.0426850481    0.4605562398
H        4.6240199526   -0.0894215997    0.4841902703
H       -4.7098663706    0.4088931125   -0.7849367035
H       -3.2190130728    0.1940105180   -2.7771185948
H       -1.2589279142   -0.2671932311    1.6856545552
H        0.8059845580   -0.4250721825   -1.3866944615
H        4.0278166443   -1.1457989755   -1.7214876060
H        2.6138823419   -0.0041085449   -1.8865033422
H        2.1778741496    1.7208173036   -0.0645794020
H        2.9068795173    1.5404873204    1.5416806764
H        3.8474693830    2.2390993001    0.2118090372
C       -3.9574954147    0.2108372881    1.8713014821
H       -4.1562516933    1.2651541511    2.0957354514
H       -4.9212553357   -0.2949449754    1.7404699741
H       -3.4679869538   -0.2329024554    2.7463291887
28   
Iteration 19 Energy -0.17914050
C       -3.0919796663    0.0875121349    0.6229453083
C       -3.6625605629    0.1762516253   -0.6517799026
C       -2.8406296587    0.0309573149   -1.7766012246
N       -1.5180193702   -0.1946106557   -1.6929562304
C       -0.9622931527   -0.2987643875   -0.4829373297
C       -1.7114501943   -0.1474261995    0.6981912535
N        0.4139234354   -0.5093848119   -0.4923869755
C        1.2528527012   -0.9685137752    0.4850280110
O        0.8914377344   -1.2519725840    1.6079829992