28
Properties=species:S:1:pos:R:3 Iteration=T 34=T Energy=T -0.18225600=T pbc="F F F"
C       -3.23906008      -0.09944221       0.55736413
C       -3.93238362      -0.78504625      -0.44716765
C       -3.20644556      -1.42780151      -1.45837812
N       -1.86358180      -1.41637992      -1.51603479
C       -1.19018657      -0.74700189      -0.57687720
C       -1.83909940      -0.09543353       0.48662957
N        0.19653134      -0.80653222      -0.68233020
C        1.13897872       0.08448025      -0.25302691
O        0.87350576       1.10036653       0.35879084
C        2.54111918      -0.28972458      -0.69190062
C        3.43784234       0.83727748      -1.17817446
C        3.78021706       0.11085611       0.09756404
C        3.73023340       0.82091149       1.44692588
H        2.60946761      -1.22761108      -1.23543163
H        4.60789572      -0.59385597       0.05259342
H       -5.01605807      -0.82945024      -0.44908421
H       -3.71831886      -1.97561021      -2.24787440
H       -1.26372691       0.40872487       1.25360316
H        0.50349887      -1.55307052      -1.27464764
H        4.06154273       0.65256946      -2.04928390
H        3.06575076       1.85710699      -1.09821485
H        3.09188748       1.71159692       1.42500406
H        3.35069137       0.14969693       2.22622041
H        4.73268634       1.14959506       1.74496651
C       -3.97130026       0.60385029       1.68619263
H       -4.98225940       0.90007492       1.38296660
H       -4.05913925      -0.05144023       2.56045025
H       -3.44028121       1.51147833       1.99676114
