28
Properties=species:S:1:pos:R:3 Iteration=T 23=T Energy=T -0.17990853=T pbc="F F F"
C       -3.23113673      -0.22938128       0.70248123
C       -3.92903668      -0.81792688      -0.35829728
C       -3.20818397      -1.38295681      -1.41829758
N       -1.86515551      -1.38367250      -1.47197078
C       -1.18669214      -0.80290495      -0.47902140
C       -1.83049600      -0.23423383       0.63402821
N        0.19952038      -0.86940942      -0.58628312
C        1.14925783      -0.02077617      -0.09261924
O        0.89158094       0.94689997       0.59482593
C        2.54605501      -0.38225460      -0.55772455
C        3.27232744       0.65392373      -1.39861311
C        3.80809245       0.29433186      -0.03610177
C        3.82708657       1.32120164       1.09202108
H        2.65602162      -1.41480054      -0.87632265
H        4.69325091      -0.33759280      -0.00768458
H       -5.01327433      -0.84564546      -0.36609337
H       -3.72441729      -1.85553899      -2.25231207
H       -1.24931376       0.19909536       1.43894794
H        0.50045596      -1.56794438      -1.23747220
H        3.82685511       0.30884611      -2.26781926
H        2.80491281       1.62954470      -1.51883609
H        3.11444028       2.13670667       0.92216417
H        3.58217902       0.85005494       2.05122920
H        4.82118030       1.77414399       1.18320221
C       -3.96842857       0.38737346       1.87791091
H       -4.53978083       1.26714253       1.55980957
H       -4.67007885      -0.32984957       2.31938016
H       -3.27721930       0.70582597       2.66706747
