28   
Iteration 0 Energy -0.17447478
C       -3.0324304800   -0.0954748000    0.8714271000
C       -3.6984575400   -0.0000780600   -0.3552077800
C       -2.9601106000   -0.1077941700   -1.5237245100
N       -1.6412572800   -0.2988008700   -1.5554405900
C       -1.0137059500   -0.3898783800   -0.3817180800
C       -1.6565364900   -0.2963231200    0.8572208800
N        0.3602636700   -0.5877383800   -0.5205271100
C        1.3158232700   -0.7502618900    0.4474454900
O        1.0792105800   -0.7718108100    1.6443185700
C        2.7167708100   -0.9108409700   -0.0645761900
C        3.2072021600   -0.4397919400   -1.4065723600
C        3.6136619200    0.3011906500   -0.1658227000
C        3.0653419600    1.6757037600    0.1142410700
H        3.1836939900   -1.8012431500    0.3485228800
H        4.6330147100    0.1390579900    0.1780583900
H       -4.7728384600    0.1543845200   -0.3970760900
H       -3.4491058300   -0.0380022000   -2.4938340800
H       -1.0773100600   -0.3860563400    1.7671673000
H        0.6453537000   -0.6597094700   -1.4873355100
H        3.9365098900   -1.0578755600   -1.9218060700
H        2.5167835000    0.0729459200   -2.0739921600
H        2.0620702000    1.7959543400   -0.3092138600
H        2.9926693000    1.8546152200    1.1921667100
H        3.7068549400    2.4483497600   -0.3230247900
C       -3.7810961700    0.0145037000    2.1672302000
H       -4.2715642600    0.9909875100    2.2528122100
H       -4.5658185900   -0.7477235700    2.2316478400
H       -3.1149925200   -0.1080870500    3.0252106600
28   
Iteration 1 Energy -0.17583243
C       -3.0822117780   -0.0946141753    0.8714534516
C       -3.6949633995   -0.0013415716   -0.3817294193
C       -2.9041655056   -0.1120982738   -1.5169969656
N       -1.5831970666   -0.3040626982   -1.4875200103
C       -0.9932317978   -0.3951225789   -0.2927756850
C       -1.7047740844   -0.2964099022    0.9128118895
N        0.3874765434   -0.5940443358   -0.3914161325
C        1.3939831880   -0.7660797503    0.5246490039
O        1.2647232319   -0.8087789979    1.7351588360
C        2.7561655244   -0.9148134940   -0.0901251166
C        3.1437328830   -0.4204513496   -1.4585274206
C        3.6398930733    0.3034355092   -0.2375279618
C        3.1111309674    1.6743915637    0.1052731153
H        3.2557286247   -1.8091235434    0.2728028487
H        4.6824080343    0.1415672916    0.0282870948
H       -4.7660810369    0.1534853113   -0.4712201025
H       -3.3489795023   -0.0442537593   -2.5083107258
H       -1.1793880044   -0.3823423626    1.8532846684
H        0.6614303299   -0.6598280187   -1.3598801311
H        3.8353107374   -1.0274921435   -2.0358185295
H        2.4043542039    0.0994094654   -2.0649007649
H        2.0788878746    1.8008302474   -0.2400745248
H        3.1189550470    1.8355265972    1.1887265423
H        3.7179589353    2.4554397709   -0.3657397417
C       -3.8860735045    0.0183185705    2.1364064664
H       -4.3789179240    0.9953481360    2.1993531519
H       -4.6730075930   -0.7437430802    2.1690051060
H       -3.2571476322   -0.1029497848    3.0229484777
28   
Iteration 2 Energy -0.17800078
C       -3.0932478373   -0.0997397108    0.8764789644
C       -3.7131732005   -0.0230257292   -0.3744109395
C       -2.9526769361   -0.1386957104   -1.5406402747
N       -1.6236682971   -0.3245689510   -1.5151824605
C       -0.9870000371   -0.4065542038   -0.3421507442
C       -1.7070871783   -0.2948817323    0.8631774754
N        0.3914174304   -0.5979234284   -0.4494804307
C        1.3741495245   -0.7473859066    0.4920071022
O        1.1590197127   -0.7637088567    1.6872609484
C        2.7647221190   -0.9244488973   -0.0705512876
C        3.1396017529   -0.4225592124   -1.4496852257
C        3.6545378037    0.2940409428   -0.2199075255
C        3.1607865277    1.6896651924    0.1328714457
H        3.2648674081   -1.8175571042    0.2920040579
H        4.6979783928    0.1415323961    0.0484744056
H       -4.7849773258    0.1261640105   -0.4491550781
H       -3.4188076451   -0.0808826343   -2.5228954386
H       -1.1921296899   -0.3605604216    1.8105433147
H        0.6764639759   -0.6652601701   -1.4077791950
H        3.8359468214   -1.0267760512   -2.0266511579
H        2.3995947225    0.0983308425   -2.0530048331
H        2.1301657169    1.8621066988   -0.1999938655
H        3.1889241423    1.8459722626    1.2180690847
H        3.7911871937    2.4527753108   -0.3384669679
C       -3.8813046679    0.0215791028    2.1642939078
H       -4.3748034606    0.9983540866    2.2276781150
H       -4.6605523745   -0.7475613008    2.2179933669
H       -3.2399343966   -0.0882282209    3.0467006382
28   
Iteration 3 Energy -0.17837611
C       -3.0666226174   -0.1066014568    0.8586994244
C       -3.7225011921   -0.0239231638   -0.3750354782
C       -2.9605667582   -0.1394094291   -1.5461658396
N       -1.6288720398   -0.3259530231   -1.5279170439
C       -0.9994656562   -0.4085804775   -0.3516995248
C       -1.6756897627   -0.3016562383    0.8803556709
N        0.3761241135   -0.5980863426   -0.4606409623
C        1.3438754446   -0.7398173184    0.4944635664
O        1.1347212419   -0.7474315684    1.6891576575
C        2.7426206982   -0.9274333791   -0.0597493361
C        3.1268726934   -0.4318785618   -1.4477476760
C        3.6378750054    0.2888003467   -0.2161109152
C        3.1651532572    1.6988243744    0.1361860609
H        3.2422469991   -1.8188819132    0.3062220437
H        4.6818806470    0.1435714267    0.0544370375
H       -4.7945411104    0.1263601782   -0.4351072512
H       -3.4306187160   -0.0798400658   -2.5264854037
H       -1.1636484130   -0.3626780731    1.8306046407
H        0.6713807747   -0.6523674070   -1.4134325835
H        3.8358258772   -1.0345605581   -2.0117079802
H        2.3955144020    0.0878654433   -2.0618375965
H        2.1371912242    1.8919468226   -0.1947482326
H        3.2019777977    1.8563957260    1.2214386220
H        3.8100522638    2.4500892569   -0.3353130455
C       -3.8586252125    0.0149057404    2.1515822426
H       -4.3491779877    0.9930610712    2.2166533265
H       -4.6352746896   -0.7569157563    2.2060699309
H       -3.2177086089   -0.0956031084    3.0354259846
28   
Iteration 4 Energy -0.17877652
C       -3.0807820111   -0.1035490946    0.8715059495
C       -3.7230554300   -0.0143156245   -0.3688930753
C       -2.9577091047   -0.1256734261   -1.5366846629
N       -1.6274186455   -0.3155086702   -1.5395065792
C       -1.0017754552   -0.4056617839   -0.3627748991
C       -1.6914471715   -0.3020818980    0.8602225265
N        0.3742974412   -0.5980132103   -0.4615967871
C        1.3450763279   -0.7467643430    0.4898788495
O        1.1401645708   -0.7565198350    1.6857278849
C        2.7442773758   -0.9267481361   -0.0629230628
C        3.1620747248   -0.4383439026   -1.4443117026
C        3.6393430248    0.2894719256   -0.2078579551
C        3.1457458842    1.6950198413    0.1206147544
H        3.2378834778   -1.8168749061    0.3148195908
H        4.6790393921    0.1479474627    0.0805741673
H       -4.7947060704    0.1387921769   -0.4352785194
H       -3.4319040692   -0.0589142501   -2.5144924550
H       -1.1641669014   -0.3731899372    1.8022685941
H        0.6720931729   -0.6456688615   -1.4154126034
H        3.8865173185   -1.0392131149   -1.9894426493
H        2.4455300111    0.0793927427   -2.0775960507
H        2.1236418615    1.8670824683   -0.2380719717
H        3.1536939252    1.8630480113    1.2044723746
H        3.7920477881    2.4500895634   -0.3422706902
C       -3.8626408235    0.0114103967    2.1692100442
H       -4.3501902511    0.9902905494    2.2447238105
H       -4.6409246695   -0.7585752855    2.2247595694
H       -3.2147060619   -0.1067263347    3.0459330215
28   
Iteration 5 Energy -0.17881303
C       -3.0757999563   -0.1018428888    0.8710519603
C       -3.7075602674   -0.0150901238   -0.3739972396
C       -2.9487442134   -0.1273970324   -1.5447000252
N       -1.6187900321   -0.3180175958   -1.5265882176
C       -0.9954125318   -0.4067238186   -0.3481586886
C       -1.6879484554   -0.3013150644    0.8727475803
N        0.3810352523   -0.6004972397   -0.4490742924
C        1.3564012394   -0.7489045446    0.4982147546
O        1.1530249990   -0.7594754927    1.6944830566
C        2.7502200135   -0.9299908115   -0.0621516959
C        3.1422218334   -0.4299586158   -1.4449181906
C        3.6400073037    0.2878239089   -0.2112430357
C        3.1402184467    1.6881742544    0.1223708798
H        3.2470745240   -1.8232131161    0.3042580136
H        4.6848497068    0.1475305819    0.0586239612
H       -4.7792466309    0.1385557504   -0.4415074887
H       -3.4178247814   -0.0622524280   -2.5250658958
H       -1.1640456983   -0.3726400078    1.8164563428
H        0.6760113024   -0.6479124095   -1.4046761886
H        3.8581883403   -1.0228423796   -2.0093070846
H        2.4120833279    0.0919152113   -2.0592245968
H        2.1127165341    1.8494520100   -0.2253490574
H        3.1582065869    1.8566592114    1.2058553753
H        3.7746464756    2.4484718451   -0.3480681073
C       -3.8667003180    0.0165484198    2.1613619590
H       -4.3541156242    0.9958978373    2.2312299057
H       -4.6462055592   -0.7524182757    2.2129485102
H       -3.2245121734   -0.1003346622    3.0420251064
28   
Iteration 6 Energy -0.17884603
C       -3.0774288521   -0.1021685220    0.8659156653
C       -3.7218474243   -0.0143071895   -0.3725739210
C       -2.9555254300   -0.1287225517   -1.5385620159
N       -1.6252437784   -0.3197099823   -1.5272052741
C       -0.9946739208   -0.4088655599   -0.3526941628
C       -1.6892658003   -0.3020399786    0.8671738968
N        0.3814400895   -0.6028400345   -0.4568382267
C        1.3536666648   -0.7487836975    0.4939365897
O        1.1447951421   -0.7570730966    1.6890781468
C        2.7498978670   -0.9297808711   -0.0613576434
C        3.1476698257   -0.4331276041   -1.4437458537
C        3.6394767452    0.2889762852   -0.2095233381
C        3.1430828356    1.6910113403    0.1253387213
H        3.2463183547   -1.8221720202    0.3075084058
H        4.6840011461    0.1502238024    0.0623437489
H       -4.7935426350    0.1396119794   -0.4382290629
H       -3.4240366838   -0.0642271935   -2.5192512300
H       -1.1679608368   -0.3722322730    1.8122587542
H        0.6771598401   -0.6490364128   -1.4119917952
H        3.8685906205   -1.0252672680   -2.0027136899
H        2.4201206704    0.0860724726   -2.0633179251
H        2.1163647087    1.8576551031   -0.2222929697
H        3.1615121498    1.8580044769    1.2091174939
H        3.7806924597    2.4496545030   -0.3435619373
C       -3.8616134675    0.0164591121    2.1607643420
H       -4.3480438628    0.9960989885    2.2333898432
H       -4.6408945087   -0.7524575174    2.2165380795
H       -3.2147123162   -0.1007537548    3.0380930088
28   
Iteration 7 Energy -0.17886195
C       -3.0768322829   -0.1029878173    0.8696580144
C       -3.7167443523   -0.0140864908   -0.3713916208
C       -2.9550470263   -0.1272328528   -1.5410066014
N       -1.6248026629   -0.3191453258   -1.5324325435
C       -0.9990417381   -0.4092837978   -0.3555984233
C       -1.6882697349   -0.3038043405    0.8675593236
N        0.3768508247   -0.6038363574   -0.4577278089
C        1.3488298362   -0.7495869900    0.4931347503
O        1.1428954871   -0.7577916471    1.6886619159
C        2.7460568847   -0.9290132796   -0.0622986484
C        3.1518570240   -0.4367445915   -1.4447225875
C        3.6364052841    0.2900117214   -0.2101962371
C        3.1433378643    1.6941222235    0.1241122072
H        3.2420982784   -1.8204441230    0.3091992127
H        4.6802277603    0.1522296305    0.0648346539
H       -4.7882503895    0.1406725048   -0.4369335048
H       -3.4265559775   -0.0609611366   -2.5201433929
H       -1.1646113728   -0.3751618279    1.8113338150
H        0.6737456894   -0.6478745188   -1.4122737611
H        3.8777711490   -1.0293822097   -1.9967969888
H        2.4286024473    0.0801404134   -2.0711253698
H        2.1178580749    1.8655154973   -0.2250110191
H        3.1608549513    1.8607073932    1.2080410244
H        3.7846688026    2.4506616359   -0.3432122988
C       -3.8629013128    0.0151097378    2.1641181920
H       -4.3485496120    0.9951321538    2.2369085896
H       -4.6426545020   -0.7534784125    2.2181182894
H       -3.2177997319   -0.1032846653    3.0427885112
28   
Iteration 8 Energy -0.17887264
C       -3.0761873819   -0.1022894081    0.8689013475
C       -3.7150657365   -0.0131744404   -0.3725632155
C       -2.9518458655   -0.1267564041   -1.5408074341
N       -1.6218212987   -0.3191718515   -1.5307482959
C       -0.9964483866   -0.4095451129   -0.3537331874
C       -1.6880001550   -0.3036380301    0.8678918676
N        0.3795322868   -0.6047461296   -0.4549264440
C        1.3519284653   -0.7502362672    0.4956281247
O        1.1460511729   -0.7587769534    1.6912483130
C        2.7482231074   -0.9303187461   -0.0605420269
C        3.1466618458   -0.4337774319   -1.4433086472
C        3.6372305743    0.2888917819   -0.2090865533
C        3.1404956068    1.6915859856    0.1232032405
H        3.2446298241   -1.8228892347    0.3078302939
H        4.6823942793    0.1517574013    0.0611821387
H       -4.7864974126    0.1419756430   -0.4391814417
H       -3.4219759840   -0.0604400427   -2.5205996672
H       -1.1646904688   -0.3755826486    1.8118453957
H        0.6765231466   -0.6489941727   -1.4096636134
H        3.8700732119   -1.0237930767   -2.0013550826
H        2.4196871937    0.0849173986   -2.0639285402
H        2.1139050102    1.8576781271   -0.2251161746
H        3.1586300875    1.8604318199    1.2067213444
H        3.7783354094    2.4494957393   -0.3466049387
C       -3.8627436117    0.0160735103    2.1626008642
H       -4.3480537014    0.9962742606    2.2352000213
H       -4.6429726329   -0.7520492283    2.2161475317
H       -3.2179989085   -0.1026999564    3.0413624934
28   
Iteration 9 Energy -0.17887351
C       -3.0768590902   -0.1023856922    0.8688563761
C       -3.7162664376   -0.0121655039   -0.3721528634
C       -2.9531481458   -0.1253872565   -1.5404268798
N       -1.6231796547   -0.3183850283   -1.5287373636
C       -0.9966880303   -0.4098903852   -0.3523347245
C       -1.6888704877   -0.3043442258    0.8689906521
N        0.3792023653   -0.6056609829   -0.4546481846
C        1.3526041722   -0.7510150546    0.4949744314
O        1.1456961150   -0.7592125840    1.6904149815
C        2.7490438753   -0.9301821070   -0.0611094426
C        3.1498576351   -0.4349144510   -1.4435543612
C        3.6375695731    0.2894924731   -0.2092738609
C        3.1402657727    1.6921356419    0.1221434251
H        3.2453542365   -1.8225017004    0.3080079746
H        4.6826876248    0.1531797641    0.0615737988
H       -4.7876594359    0.1434882106   -0.4383568026
H       -3.4226463335   -0.0583777646   -2.5204752905
H       -1.1664194912   -0.3771146402    1.8133132162
H        0.6753653128   -0.6493847727   -1.4096972625
H        3.8751978584   -1.0243759888   -1.9996682086
H        2.4238341056    0.0827301916   -2.0661727100
H        2.1139155013    1.8578997966   -0.2270269402
H        3.1574576409    1.8612992159    1.2056196037
H        3.7783155536    2.4500481270   -0.3473672609
C       -3.8634640655    0.0155606432    2.1624647780
H       -4.3482555746    0.9959724462    2.2356649026
H       -4.6441284775   -0.7521563759    2.2154459915
H       -3.2187824415   -0.1041494738    3.0411297395
28   
Iteration 10 Energy -0.17887457
C       -3.0763223306   -0.1024555244    0.8687992286
C       -3.7156455493   -0.0117440081   -0.3722557823
C       -2.9525179799   -0.1249346044   -1.5405909852
N       -1.6225882974   -0.3183438569   -1.5296880201
C       -0.9963450675   -0.4102672450   -0.3532064174
C       -1.6883227844   -0.3048409855    0.8682723555
N        0.3794771174   -0.6064266910   -0.4553053892
C        1.3517615310   -0.7509054942    0.4955660983
O        1.1458224137   -0.7586313433    1.6911545302
C        2.7482944538   -0.9302286005   -0.0603020836
C        3.1486027602   -0.4354243035   -1.4430641284
C        3.6365431495    0.2896159255   -0.2091326385
C        3.1397053915    1.6925413753    0.1222129119
H        3.2447312033   -1.8224996405    0.3087395560
H        4.6819366036    0.1538038073    0.0609057048
H       -4.7869758902    0.1442550600   -0.4384958304
H       -3.4222638055   -0.0575129960   -2.5204931156
H       -1.1657416702   -0.3780227049    1.8124920107
H        0.6763317375   -0.6501629501   -1.4100935772
H        3.8743505200   -1.0244969576   -1.9990778461
H        2.4222811495    0.0817062672   -2.0657549169
H        2.1131725412    1.8586368808   -0.2262843562
H        3.1576933738    1.8619722214    1.2056440432
H        3.7776875461    2.4501576099   -0.3478818663
C       -3.8627585466    0.0153791700    2.1626080171
H       -4.3471411690    0.9959660174    2.2361806052
H       -4.6436973237   -0.7520728991    2.2154288531
H       -3.2180714011   -0.1048610138    3.0412207366
28   
Iteration 11 Energy -0.17887482
C       -3.0763853105   -0.1026570582    0.8689738882
C       -3.7151462698   -0.0109840859   -0.3723537584
C       -2.9515012389   -0.1238052928   -1.5404103649
N       -1.6216665841   -0.3177057256   -1.5299028287
C       -0.9965084230   -0.4103981129   -0.3529457842
C       -1.6884093841   -0.3055473114    0.8686093770
N        0.3792668865   -0.6070349862   -0.4542234930
C        1.3520581090   -0.7507934724    0.4961970175
O        1.1455430636   -0.7578291544    1.6916952803
C        2.7486239301   -0.9303234830   -0.0595950407
C        3.1481384976   -0.4357899251   -1.4427444473
C        3.6365628450    0.2896277832   -0.2092113050
C        3.1395964771    1.6927670376    0.1211348914
H        3.2451488461   -1.8225882343    0.3093340815
H        4.6822476967    0.1543838083    0.0599921566
H       -4.7863829064    0.1454465278   -0.4390167667
H       -3.4210834659   -0.0556224503   -2.5203381636
H       -1.1659313048   -0.3795615813    1.8128397587
H        0.6762270195   -0.6507394844   -1.4089633914
H        3.8741039745   -1.0244521909   -1.9989167389
H        2.4214352477    0.0809915653   -2.0652729157
H        2.1129088496    1.8584177528   -0.2271247066
H        3.1579590358    1.8631012550    1.2044213581
H        3.7772930554    2.4500987872   -0.3498103758
C       -3.8632726026    0.0146725029    2.1625925277
H       -4.3472025072    0.9954474084    2.2366418931
H       -4.6445963099   -0.7524457850    2.2145816853
H       -3.2190275482   -0.1064735959    3.0414138499
28   
Iteration 12 Energy -0.17887523
C       -3.0764586310   -0.1028388743    0.8690571135
C       -3.7149712606   -0.0101026231   -0.3722923006
C       -2.9513073764   -0.1223593802   -1.5403652603
N       -1.6215348994   -0.3166879706   -1.5293587736
C       -0.9962942120   -0.4103691832   -0.3525026809
C       -1.6885822187   -0.3061665071    0.8688912607
N        0.3794285769   -0.6074470411   -0.4539388039
C        1.3521733820   -0.7506669585    0.4966369218
O        1.1458675109   -0.7570957139    1.6921771883
C        2.7487510080   -0.9302392844   -0.0590670030
C        3.1485661428   -0.4364768524   -1.4423949457
C        3.6365101048    0.2897586229   -0.2091887336
C        3.1391506079    1.6930088696    0.1199286272
H        3.2452168335   -1.8223652890    0.3102811787
H        4.6822524387    0.1549257544    0.0599995142
H       -4.7861558981    0.1467099618   -0.4389523194
H       -3.4206147975   -0.0533891000   -2.5203695157
H       -1.1663958999   -0.3810978614    1.8132024298
H        0.6763631820   -0.6512947475   -1.4086929693
H        3.8749463832   -1.0251112973   -1.9980498774
H        2.4219477145    0.0798096169   -2.0654360265
H        2.1124855612    1.8580496793   -0.2286808355
H        3.1572199658    1.8642150682    1.2030789241
H        3.7767262459    2.4501386241   -0.3515009927
C       -3.8635325424    0.0138226885    2.1625867412
H       -4.3470679519    0.9947415449    2.2373004379
H       -4.6452037837   -0.7529903933    2.2138342950
H       -3.2194865062   -0.1082788491    3.0414140938
28   
Iteration 13 Energy -0.17887573
C       -3.0767084760   -0.1035339104    0.8692563364
C       -3.7144343961   -0.0077593733   -0.3722481980
C       -2.9502604233   -0.1183451050   -1.5401265089
N       -1.6206560220   -0.3137858414   -1.5284350546
C       -0.9959124988   -0.4101568898   -0.3515135522
C       -1.6890241980   -0.3079892420    0.8695895819
N        0.3796758300   -0.6083911535   -0.4527603386
C        1.3524129995   -0.7496951867    0.4981297962
O        1.1462740450   -0.7538999021    1.6937120969
C        2.7490024704   -0.9298913800   -0.0572915122
C        3.1488853394   -0.4386019647   -1.4414552030
C        3.6363650154    0.2901115991   -0.2095362008
C        3.1386463318    1.6938974709    0.1166228948
H        3.2454416205   -1.8215240734    0.3132824656
H        4.6823224540    0.1562977757    0.0593266465
H       -4.7854582691    0.1500558067   -0.4391662819
H       -3.4188691643   -0.0471107955   -2.5203031042
H       -1.1675861259   -0.3855157226    1.8140962054
H        0.6767072100   -0.6529213670   -1.4074602915
H        3.8759320068   -1.0275410956   -1.9959117522
H        2.4221765705    0.0762112821   -2.0656123982
H        2.1118782893    1.8578439500   -0.2321970229
H        3.1567744596    1.8674200808    1.1994005336
H        3.7759149000    2.4502190764   -0.3565138119
C       -3.8644516667    0.0110895276    2.1625320201
H       -4.3469310280    0.9923809339    2.2391556103
H       -4.6470373771   -0.7549349097    2.2115577482
H       -3.2210802207   -0.1137270992    3.0414669532
28   
Iteration 14 Energy -0.17887818
C       -3.0782729427   -0.1076236205    0.8704458914
C       -3.7115183749    0.0047145877   -0.3719104906
C       -2.9442559493   -0.0963139522   -1.5385680044
N       -1.6155232235   -0.2973833280   -1.5238282588
C       -0.9941553553   -0.4082781611   -0.3463353402
C       -1.6915173590   -0.3177503266    0.8732826412
N        0.3807377055   -0.6123924460   -0.4460570535
C        1.3535182519   -0.7432300362    0.5063491066
O        1.1480173500   -0.7348047890    1.7020326916
C        2.7501808399   -0.9276624669   -0.0473728781
C        3.1502473752   -0.4503165180   -1.4363130694
C        3.6360356089    0.2917771012   -0.2117724669
C        3.1369211011    1.6986593871    0.0981259965
H        3.2464194881   -1.8163063944    0.3305712221
H        4.6828434239    0.1627964343    0.0561518941
H       -4.7816847716    0.1676438905   -0.4403902738
H       -3.4091735348   -0.0127053293   -2.5195245664
H       -1.1740377954   -0.4093932943    1.8186728716
H        0.6783522422   -0.6611516397   -1.4003833257
H        3.8798613923   -1.0421282497   -1.9842950833
H        2.4231646919    0.0567737680   -2.0663380787
H        2.1097024300    1.8571329472   -0.2518914182
H        3.1554167611    1.8848870699    1.1787753362
H        3.7729124249    2.4501692006   -0.3842995771
C       -3.8698644495   -0.0046209749    2.1622631857
H       -4.3470102399    0.9783963381    2.2494396108
H       -4.6570472885   -0.7666084751    2.1990274439
H       -3.2302701532   -0.1440782914    3.0417396366
28   
Iteration 15 Energy -0.17835475
C       -3.1037922612   -0.1682061726    0.8858278571
C       -3.6580854286    0.1902951578   -0.3468383145
C       -2.8358495590    0.2335737670   -1.4782537278
N       -1.5237041674   -0.0515733055   -1.4225287642
C       -0.9637653497   -0.3782610845   -0.2534504428
C       -1.7337724120   -0.4614775752    0.9224370293
N        0.3980318019   -0.6660404816   -0.3342036503
C        1.3743468172   -0.6364402534    0.6239347171
O        1.1805157067   -0.4394435151    1.8054777216
C        2.7709821234   -0.8797086403    0.0950897541
C        3.1679554076   -0.6149879223   -1.3499449685
C        3.6308799958    0.3179401216   -0.2543742633
C        3.1083488012    1.7474540439   -0.1865552220
H        3.2683769929   -1.7139386115    0.5802532129
H        4.6895053628    0.2586996868   -0.0092056895
H       -4.7128532157    0.4275823842   -0.4355201290
H       -3.2367711327    0.5013464765   -2.4544570264
H       -1.2854566118   -0.7627259350    1.8591918280
H        0.6983488093   -0.7768891098   -1.2826453747
H        3.9324116085   -1.2415018272   -1.8036686506
H        2.4323520524   -0.2317436092   -2.0534232713
H        2.0735533365    1.8226267289   -0.5419909064
H        3.1346381058    2.1186006406    0.8450005652
H        3.7221830713    2.4153260454   -0.8022377399
C       -3.9627143688   -0.2396599802    2.1349093535
H       -4.3683457271    0.7474595134    2.3852276548
H       -4.8071495598   -0.9233802766    1.9898828253
H       -3.3901708758   -0.5947245474    2.9996629583
28   
Iteration 16 Energy -0.17884002
C       -3.0908838716   -0.1385118942    0.8787694440
C       -3.6873082273    0.0976532208   -0.3640813655
C       -2.8943333357    0.0692145154   -1.5170870470
N       -1.5729901614   -0.1734962143   -1.4810401482
C       -0.9801323929   -0.3928136302   -0.3036095627
C       -1.7117369369   -0.3901505046    0.8993006477
N        0.3888560096   -0.6394371486   -0.3926220542
C        1.3627498809   -0.6906735728    0.5666463487
O        1.1624321388   -0.5869167675    1.7588292427
C        2.7595781155   -0.9066535418    0.0257230974
C        3.1593894995   -0.5357877941   -1.3951829706
C        3.6340074294    0.3044085948   -0.2313947858
C        3.1246484073    1.7284696210   -0.0431722883
H        3.2552749443   -1.7699808331    0.4589730303
H        4.6866808155    0.2102738888    0.0279921322
H       -4.7504062520    0.2979418153   -0.4434818679
H       -3.3292889366    0.2453936557   -2.4995270842
H       -1.2265030996   -0.5872939761    1.8454935132
H        0.6892756970   -0.7201938529   -1.3439790841
H        3.9062571219   -1.1482448144   -1.8950884383
H        2.4288731735   -0.0886555014   -2.0654173546
H        2.0938779898    1.8461249262   -0.3987928028
H        3.1468024620    2.0086429292    1.0168749317
H        3.7507014995    2.4403838593   -0.5937940049
C       -3.9140668037   -0.1234672135    2.1541879618
H       -4.3537800039    0.8665041773    2.3221312126
H       -4.7323375213   -0.8508047426    2.0992482731
H       -3.3056381561   -0.3717271266    3.0316985184
28   
Iteration 17 Energy -0.17888346
C       -3.0845154219   -0.1232215625    0.8747496833
C       -3.7000498072    0.0512056322   -0.3691657077
C       -2.9203809221   -0.0134118102   -1.5299702176
N       -1.5951153385   -0.2351846634   -1.5044201441
C       -0.9874463375   -0.4004114331   -0.3259312695
C       -1.7013664820   -0.3540683023    0.8866184071
N        0.3846667781   -0.6259348333   -0.4199752207
C        1.3578164716   -0.7171088314    0.5368711932
O        1.1546941562   -0.6607300611    1.7317104278
C        2.7546193451   -0.9178869563   -0.0103661887
C        3.1548848747   -0.4938580839   -1.4163123132
C        3.6351521222    0.2979788370   -0.2212180071
C        3.1312787066    1.7149369742    0.0277865600
H        3.2503438268   -1.7943034516    0.3957376295
H        4.6848312069    0.1863458364    0.0432743692
H       -4.7668456557    0.2328456263   -0.4433088046
H       -3.3708527403    0.1165978730   -2.5126130087
H       -1.1993898688   -0.4986080487    1.8336673584
H        0.6840572886   -0.6909971406   -1.3728140283
H        3.8929970872   -1.0969686450   -1.9400388038
H        2.4262945632   -0.0162352880   -2.0673044795
H        2.1023556588    1.8532727330   -0.3257407975
H        3.1515305665    1.9484477771    1.0991503763
H        3.7625929521    2.4472234221   -0.4890950433
C       -3.8913560570   -0.0643865791    2.1596004365
H       -4.3494252310    0.9233130095    2.2869412836
H       -4.6946563597   -0.8102030483    2.1503383688
H       -3.2667158169   -0.2584467284    3.0394255145
28   
Iteration 18 Energy -0.17889173
C       -3.0838654372   -0.1234907616    0.8746807365
C       -3.6999694865    0.0519971179   -0.3688344754
C       -2.9207974186   -0.0119625291   -1.5300985473
N       -1.5955511418   -0.2341569417   -1.5054400312
C       -0.9875389727   -0.4004966145   -0.3273059236
C       -1.7007487574   -0.3547861164    0.8856213680
N        0.3843865122   -0.6266447854   -0.4210819962
C        1.3568613066   -0.7167399809    0.5364711738
O        1.1524481347   -0.6594981465    1.7310491532
C        2.7542335107   -0.9177107809   -0.0093759902
C        3.1555262420   -0.4947217323   -1.4154292632
C        3.6347060265    0.2981646163   -0.2205779025
C        3.1302726845    1.7152455504    0.0269709067
H        3.2499795616   -1.7934911997    0.3980616239
H        4.6840674260    0.1869416690    0.0453469676
H       -4.7667364525    0.2340304729   -0.4423573669
H       -3.3717272023    0.1189343988   -2.5124137469
H       -1.1979315002   -0.4998216064    1.8322090579
H        0.6843350861   -0.6918765410   -1.3736973425
H        3.8939732104   -1.0984220311   -1.9380103598
H        2.4273768350   -0.0177396172   -2.0673761126
H        2.1016187153    1.8531032296   -0.3275382700
H        3.1496029713    1.9495624333    1.0981805826
H        3.7618735592    2.4472938245   -0.4899030916
C       -3.8900635485   -0.0652215801    2.1600361278
H       -4.3475654247    0.9226149860    2.2883535872
H       -4.6936978498   -0.8106775818    2.1506467136
H       -3.2650690924   -0.2602274834    3.0394099761
28   
Iteration 19 Energy -0.17899831
C       -3.0866923749   -0.1463190939    0.8790847042
C       -3.6829867670    0.1174445897   -0.3585973913
C       -2.8905561094    0.1068936443   -1.5130420534
N       -1.5703286073   -0.1441039954   -1.4848043270
C       -0.9797200574   -0.3885880271   -0.3114584614
C       -1.7087491690   -0.4062687487    0.8921451764
N        0.3865231964   -0.6463315097   -0.3955761994
C        1.3539308497   -0.6752489397    0.5703992022
O        1.1407180945   -0.5477939814    1.7581160058