28   
Iteration 0 Energy -0.17112623
C       -3.1001632700   -0.1104137200    0.7798783900
C       -3.5927000100    0.2860099100   -0.4683681800
C       -2.6970201600    0.4529620900   -1.5133254700
N       -1.3828686400    0.2596007300   -1.4048212300
C       -0.9206072100   -0.1185881300   -0.2112969100
C       -1.7317553000   -0.3186045700    0.9108294800
N        0.4644288100   -0.2824275900   -0.2042798600
C        1.2801443000   -0.7111500300    0.8130221300
O        0.8600078700   -1.0287755100    1.9153838300
C        2.7467580300   -0.7530197700    0.5303476500
C        3.3232088800   -1.0060765800   -0.8478516600
C        3.5549806200    0.3127186000   -0.1957766000
C        2.9977945800    1.6134273300   -0.7160040600
H        3.2526686900   -1.2344325200    1.3606328100
H        4.5435613400    0.4314178600    0.2450711200
H       -4.6539986500    0.4597280400   -0.6212417400
H       -3.0476736100    0.7600710200   -2.4971478400
H       -1.2826707300   -0.6320986200    1.8439022900
H        0.8605449800   -0.1145969800   -1.1176407700
H        4.1402514600   -1.7171220200   -0.9271215900
H        2.6316409600   -1.0492806000   -1.6867493300
H        2.0334016700    1.5099595900   -1.2191421800
H        2.8614913900    2.3318757600    0.0994017600
H        3.6958454900    2.0516602100   -1.4377039900
C       -4.0231683400   -0.3098331000    1.9460806100
H       -4.5794936800    0.6083168600    2.1663280400
H       -4.7611460200   -1.0908627400    1.7300801700
H       -3.4734620500   -0.6002656700    2.8451179100
28   
Iteration 1 Energy -0.17342568
C       -3.1214987370   -0.0987993211    0.7734263955
C       -3.5592146526    0.3013405505   -0.4929239518
C       -2.6189412244    0.4512075734   -1.5022345406
N       -1.3118521077    0.2369447921   -1.3390468908
C       -0.8904009742   -0.1457531746   -0.1305364647
C       -1.7602287258   -0.3271549363    0.9551612115
N        0.4950094492   -0.3269669110   -0.0862109195
C        1.3612509727   -0.7537304364    0.8913238776
O        1.0355962375   -1.0921670059    2.0168109050
C        2.8101528383   -0.7657818842    0.5153735678
C        3.2975266803   -0.9953363919   -0.9014628425
C        3.5472648602    0.3234725656   -0.2498582187
C        2.9300061634    1.6189284749   -0.7185344133
H        3.3799771163   -1.2448248078    1.3049503258
H        4.5601709720    0.4600571862    0.1255530378
H       -4.6105371522    0.4910733502   -0.6881445706
H       -2.9247339906    0.7608489735   -2.5001489339
H       -1.3653085778   -0.6440157438    1.9096449310
H        0.8840945335   -0.1568820243   -1.0005493258
H        4.1211042433   -1.6893644201   -1.0429720630
H        2.5524648695   -1.0438313925   -1.6927685796
H        1.9366104201    1.4992805472   -1.1582234559
H        2.8335780935    2.3264140318    0.1122673517
H        3.5693501177    2.0792670591   -1.4799868639
C       -4.0926444176   -0.2811214655    1.9053800778
H       -4.6426180493    0.6461966793    2.1021314982
H       -4.8335340233   -1.0516026915    1.6629533668
H       -3.5826435113   -0.5774993273    2.8262302218
28   
Iteration 2 Energy -0.17609589
C       -3.1323177051   -0.1074308855    0.7798010910
C       -3.5595358775    0.2923104288   -0.4902081493
C       -2.6361855486    0.4699016966   -1.5239462710
N       -1.3208549494    0.2672542535   -1.3486867706
C       -0.8624701403   -0.1201330794   -0.1534936827
C       -1.7539941641   -0.3090062419    0.9205281685
N        0.5208977425   -0.2937371409   -0.0997657110
C        1.3622257972   -0.7167676192    0.8941590941
O        0.9575821650   -1.0288677593    1.9962579556
C        2.8351919221   -0.7773739968    0.5429662955
C        3.2822557529   -1.0229548872   -0.8903273395
C        3.5676635760    0.3047196692   -0.2370069591
C        2.9382427936    1.6044966375   -0.7200775414
H        3.4244352763   -1.2574428691    1.3195480099
H        4.5883339003    0.4700283007    0.1029081367
H       -4.6121527518    0.4689456295   -0.6833229461
H       -2.9560029605    0.7823515669   -2.5166908425
H       -1.3810560688   -0.6165239973    1.8867900528
H        0.9437620073   -0.0987249310   -0.9864373291
H        4.1055782539   -1.7165693484   -1.0457789929
H        2.5247415860   -1.0597546452   -1.6694207915
H        1.9434783024    1.4697857328   -1.1554313920
H        2.8483113528    2.3202459757    0.1058800497
H        3.5662386538    2.0644602886   -1.4923047379
C       -4.1050752636   -0.3086626362    1.9239260135
H       -4.6625433770    0.6129482864    2.1277611446
H       -4.8335620891   -1.0912074680    1.6818319160
H       -3.5931862158   -0.6020914157    2.8481463802
28   
Iteration 3 Energy -0.17668582
C       -3.1103024801   -0.1151512011    0.7623393531
C       -3.5820930008    0.2891926193   -0.4919069709
C       -2.6470178182    0.4753138956   -1.5206616983
N       -1.3268377990    0.2797591849   -1.3502155388
C       -0.8754321274   -0.1114947665   -0.1543705639
C       -1.7322028905   -0.3209573395    0.9456113152
N        0.5058199265   -0.2799035334   -0.1000770469
C        1.3316943519   -0.6995996398    0.9036679842
O        0.9378104919   -1.0075295846    2.0081072380
C        2.8189450318   -0.7764618745    0.5607000006
C        3.2511100756   -1.0336527966   -0.8804137432
C        3.5651193853    0.2960583258   -0.2269862810
C        2.9648978258    1.6098771491   -0.7374589336
H        3.4123505504   -1.2612670831    1.3314381599
H        4.5899642524    0.4632130274    0.0986138567
H       -4.6373805438    0.4582499415   -0.6736921364
H       -2.9666209292    0.7914887951   -2.5123261471
H       -1.3684339204   -0.6269003654    1.9168319263
H        0.9469052435   -0.0590706059   -0.9678836942
H        4.0744799182   -1.7284010907   -1.0341654361
H        2.4979647570   -1.0599757937   -1.6637336011
H        1.9821300399    1.4963371464   -1.2034853926
H        2.8731175700    2.3341313363    0.0814627432
H        3.6195986758    2.0537393968   -1.4973010805
C       -4.0889040277   -0.3261181960    1.9086757411
H       -4.6481554251    0.5934901562    2.1169985470
H       -4.8109500289   -1.1137471306    1.6636575210
H       -3.5775753569   -0.6204205814    2.8341789607
28   
Iteration 4 Energy -0.17717911
C       -3.1266255830   -0.1140490679    0.7752824772
C       -3.5778930265    0.2935466517   -0.4853355077
C       -2.6480158561    0.4761821322   -1.5168787057
N       -1.3270230486    0.2793672019   -1.3672851497
C       -0.8808892406   -0.1132758362   -0.1708401369
C       -1.7455521928   -0.3170978868    0.9214312773
N        0.4996378115   -0.2877816597   -0.1103501030
C        1.3267044195   -0.7096264664    0.8929891895
O        0.9438580463   -1.0191911398    2.0016517488
C        2.8121922240   -0.7754553456    0.5563375488
C        3.2735893992   -1.0299725258   -0.8756404370
C        3.5645241642    0.3004013932   -0.2205392878
C        2.9650793806    1.6074458847   -0.7409318037
H        3.3918972812   -1.2584365813    1.3376688416
H        4.5846178695    0.4656904687    0.1210228529
H       -4.6319601090    0.4691958431   -0.6707783791
H       -2.9752600155    0.7941926466   -2.5054102347
H       -1.3599454961   -0.6293433438    1.8828832438
H        0.9382684626   -0.0663884048   -0.9811710359
H        4.1047743591   -1.7175962464   -1.0149937409
H        2.5370394685   -1.0616479706   -1.6747036124
H        1.9941996137    1.4854621619   -1.2289235792
H        2.8473461617    2.3297659422    0.0758522251
H        3.6336030530    2.0572607482   -1.4846902728
C       -4.0953738541   -0.3241373384    1.9269339572
H       -4.6509833847    0.5960833359    2.1417556333
H       -4.8218288634   -1.1090469972    1.6864812820
H       -3.5759794616   -0.6213482023    2.8457867431
28   
Iteration 5 Energy -0.17727724
C       -3.1184135698   -0.1076600822    0.7728703743
C       -3.5655699275    0.3016012494   -0.4878732795
C       -2.6373593195    0.4805605438   -1.5200351257
N       -1.3198303266    0.2745169837   -1.3551391000
C       -0.8741222937   -0.1197661815   -0.1588141876
C       -1.7415130427   -0.3196094299    0.9313764461
N        0.5066253069   -0.2981093745   -0.1020968507
C        1.3415469132   -0.7210138236    0.8951271311
O        0.9504525894   -1.0299124628    2.0014171115
C        2.8224072037   -0.7815554786    0.5525847347
C        3.2829794956   -1.0275319706   -0.8798354478
C        3.5583297398    0.3037884412   -0.2236456061
C        2.9311739165    1.5985937422   -0.7355007069
H        3.4059052602   -1.2626886758    1.3320263534
H        4.5791751240    0.4784246953    0.1111344254
H       -4.6192383259    0.4814403266   -0.6726945865
H       -2.9578172658    0.7995086194   -2.5104756048
H       -1.3605893710   -0.6348674373    1.8935236091
H        0.9391798237   -0.0751372827   -0.9765453061
H        4.1216200235   -1.7042340286   -1.0262812285
H        2.5436065870   -1.0635625131   -1.6763223101
H        1.9619530132    1.4516238977   -1.2211199889
H        2.7962317826    2.3136875429    0.0847632687
H        3.5878389288    2.0674503948   -1.4779167099
C       -4.0920998213   -0.3119539663    1.9194373072
H       -4.6439745264    0.6110328545    2.1318028051
H       -4.8218202345   -1.0930261374    1.6765047884
H       -3.5766759965   -0.6114009728    2.8393326117
28   
Iteration 6 Energy -0.17733190
C       -3.1198709953   -0.1079072460    0.7706242961
C       -3.5758138643    0.3013047435   -0.4869627262
C       -2.6438880830    0.4791976252   -1.5165030472
N       -1.3250909101    0.2746671212   -1.3567447079
C       -0.8728291016   -0.1199905251   -0.1630318042
C       -1.7420872560   -0.3190143117    0.9261969326
N        0.5080425982   -0.2977295339   -0.1089852722
C        1.3366225196   -0.7198609888    0.8934802539
O        0.9441234778   -1.0295151993    1.9987123845
C        2.8194833808   -0.7810573328    0.5559405531
C        3.2813414089   -1.0280776555   -0.8759230867
C        3.5592103683    0.3033045478   -0.2194327001
C        2.9389510080    1.5998798260   -0.7379334856
H        3.4012067430   -1.2641313504    1.3356300576
H        4.5803269402    0.4768963508    0.1149663268
H       -4.6297449958    0.4806245682   -0.6702952889
H       -2.9648913366    0.7981732369   -2.5067651645
H       -1.3632125951   -0.6336834503    1.8892157156
H        0.9435157011   -0.0719336564   -0.9808779175
H        4.1208002611   -1.7041468340   -1.0212593469
H        2.5439900385   -1.0620625179   -1.6743837108
H        1.9782131084    1.4554711043   -1.2406419024
H        2.7917021094    2.3129890540    0.0820380263
H        3.6073615781    2.0706568591   -1.4686305705
C       -4.0888812690   -0.3137675073    1.9215633022
H       -4.6407050368    0.6086485196    2.1365900313
H       -4.8184364148   -1.0958894729    1.6814986226
H       -3.5694376068   -0.6128463076    2.8395191218
28   
Iteration 7 Energy -0.17737704
C       -3.1180795388   -0.1096148712    0.7740701010
C       -3.5695931676    0.3004033216   -0.4850378444
C       -2.6418688198    0.4800905922   -1.5187840216
N       -1.3229131504    0.2745701199   -1.3589346426
C       -0.8758301120   -0.1213211042   -0.1638041931
C       -1.7397953786   -0.3218275433    0.9297694909
N        0.5045701309   -0.3004985565   -0.1088134635
C        1.3314581528   -0.7209966745    0.8951638724
O        0.9427321772   -1.0330446897    2.0006694307
C        2.8160123107   -0.7807366374    0.5583053060
C        3.2758302132   -1.0280900109   -0.8743687796
C        3.5567796250    0.3037351578   -0.2178414393
C        2.9424210970    1.6018479133   -0.7432607509
H        3.3987995243   -1.2659912049    1.3359872372
H        4.5790583209    0.4775038732    0.1127664533
H       -4.6233749364    0.4803614253   -0.6678974607
H       -2.9652072458    0.8000115837   -2.5079869327
H       -1.3607421719   -0.6365317514    1.8926915043
H        0.9430877554   -0.0700399931   -0.9774060688
H        4.1175457426   -1.7012939670   -1.0208654830
H        2.5393309005   -1.0607143655   -1.6736442863
H        1.9958361204    1.4585944294   -1.2722270537
H        2.7731766884    2.3092038316    0.0775841328
H        3.6266154180    2.0800498350   -1.4543669089
C       -4.0903944133   -0.3143960489    1.9234901907
H       -4.6411775449    0.6089417396    2.1373301222
H       -4.8201430959   -1.0958321217    1.6817298974
H       -3.5741326919   -0.6141844765    2.8432864370
28   
Iteration 8 Energy -0.17745115
C       -3.1157740059   -0.1060640430    0.7739321647
C       -3.5666607847    0.3059559243   -0.4848512373
C       -2.6359687063    0.4828144318   -1.5161203036
N       -1.3172863593    0.2745527440   -1.3594552601
C       -0.8729862234   -0.1231387065   -0.1640822343
C       -1.7380214361   -0.3217555966    0.9286895378
N        0.5067742747   -0.3060699499   -0.1069614260
C        1.3357688873   -0.7263563786    0.8954793286
O        0.9454766096   -1.0387631807    2.0004221775
C        2.8195059318   -0.7837770655    0.5578261102
C        3.2815575333   -1.0285456652   -0.8741890070
C        3.5529408484    0.3052062014   -0.2177473864
C        2.9255344359    1.5963008752   -0.7433998639
H        3.4037834001   -1.2677835523    1.3351177601
H        4.5749369398    0.4857384817    0.1101376415
H       -4.6197496930    0.4890871427   -0.6687145003
H       -2.9581990313    0.8042025950   -2.5052059601
H       -1.3585077884   -0.6383329899    1.8909209163
H        0.9454090263   -0.0740163206   -0.9752130636
H        4.1290512528   -1.6941175317   -1.0220285396
H        2.5459187590   -1.0653592633   -1.6740900337
H        1.9930531954    1.4371297144   -1.2931867535
H        2.7247011570    2.2921591388    0.0801211236
H        3.6145214194    2.0947449287   -1.4357169789
C       -4.0878669681   -0.3092445801    1.9234735846
H       -4.6364194301    0.6152233235    2.1381383657
H       -4.8196022027   -1.0887640105    1.6815404509
H       -3.5718890919   -0.6108267044    2.8427681834
28   
Iteration 9 Energy -0.17757054
C       -3.1073500421   -0.0963756010    0.7746338612
C       -3.5558378106    0.3211170267   -0.4829123054
C       -2.6249228387    0.4927677434   -1.5138298675
N       -1.3083432492    0.2742080737   -1.3562497008
C       -0.8631771420   -0.1288118419   -0.1629026795
C       -1.7318358513   -0.3220683922    0.9275020119
N        0.5158280218   -0.3200590677   -0.1082425891
C        1.3445682962   -0.7401982711    0.8952618628
O        0.9570810771   -1.0544660249    2.0009122023
C        2.8259779034   -0.7908202688    0.5560990223
C        3.2970703370   -1.0302135580   -0.8725272273
C        3.5410676711    0.3093786888   -0.2178774097
C        2.8799104966    1.5807205781   -0.7453137160
H        3.4126914030   -1.2704156777    1.3341094209
H        4.5608194752    0.5081119400    0.1065908876
H       -4.6078479970    0.5121561778   -0.6655924046
H       -2.9442870748    0.8181713254   -2.5025264224
H       -1.3527055780   -0.6441878927    1.8880458345
H        0.9537045956   -0.0860190427   -0.9768148182
H        4.1597961121   -1.6755949886   -1.0209998434
H        2.5647820198   -1.0810418454   -1.6748144194
H        2.0028395487    1.3806452258   -1.3698064773
H        2.5736538950    2.2316854587    0.0823712124
H        3.5860289918    2.1447504154   -1.3663094347
C       -4.0787930871   -0.2950303639    1.9241819784
H       -4.6213015195    0.6324551105    2.1410853851
H       -4.8161734033   -1.0690395773    1.6817390336
H       -3.5632421700   -0.6016249702    2.8417913569
28   
Iteration 10 Energy -0.17758813
C       -3.1099153057   -0.0947362929    0.7769895281
C       -3.5586841637    0.3257156750   -0.4795222006
C       -2.6267135171    0.4973785849   -1.5095207249
N       -1.3106020116    0.2763237373   -1.3518838317
C       -0.8653486724   -0.1295943516   -0.1594669332
C       -1.7348914432   -0.3231891144    0.9302883388
N        0.5133724887   -0.3231187328   -0.1057019648
C        1.3496153890   -0.7401651946    0.8929050009
O        0.9554892111   -1.0519091342    1.9970310854
C        2.8316295378   -0.7906121739    0.5541309885
C        3.3066084487   -1.0331459251   -0.8722993387
C        3.5449212005    0.3100363110   -0.2217893381
C        2.8782953003    1.5768870964   -0.7533337398
H        3.4183826420   -1.2673397890    1.3338901536
H        4.5627492255    0.5143957741    0.1052189006
H       -4.6103677096    0.5187732729   -0.6619234678
H       -2.9450225071    0.8249867120   -2.4978310696
H       -1.3577272359   -0.6476297973    1.8907515429
H        0.9485602511   -0.0880864506   -0.9752657191
H        4.1730251061   -1.6745125344   -1.0166876713
H        2.5757812602   -1.0918341551   -1.6753822449
H        2.0459545433    1.3671841662   -1.4340283191
H        2.5042444869    2.1956414818    0.0712704457
H        3.6018497687    2.1778968083   -1.3169386372
C       -4.0816245918   -0.2939152259    1.9262367193
H       -4.6230021492    0.6339070070    2.1445351086
H       -4.8200999141   -1.0664912985    1.6825497366
H       -3.5664774291   -0.6026455435    2.8433823633
28   
Iteration 11 Energy -0.17764090
C       -3.1041752914   -0.0951808382    0.7762288220
C       -3.5519766086    0.3258957577   -0.4806424044
C       -2.6203117996    0.5002505313   -1.5110410169
N       -1.3037158799    0.2810760821   -1.3539644988
C       -0.8606731661   -0.1252138405   -0.1608130343
C       -1.7284633639   -0.3219670976    0.9300786859
N        0.5179496212   -0.3180058463   -0.1057091666
C        1.3482480938   -0.7339176598    0.8981154055
O        0.9587407409   -1.0426699828    2.0046544518
C        2.8299012835   -0.7898703169    0.5561524173
C        3.2960460868   -1.0371864123   -0.8722595833
C        3.5411513223    0.3076697523   -0.2264043319
C        2.8702615261    1.5749631414   -0.7528072784
H        3.4202644433   -1.2637129810    1.3350373071
H        4.5594558225    0.5137907178    0.0979580240
H       -4.6037473804    0.5176939259   -0.6635001311
H       -2.9395348119    0.8283588197   -2.4988935400
H       -1.3514821307   -0.6465305770    1.8905612980
H        0.9565048090   -0.0860844176   -0.9741651003
H        4.1589332991   -1.6830333409   -1.0182230973
H        2.5587315142   -1.0988617487   -1.6691287921
H        2.0443938194    1.3640033739   -1.4411213544
H        2.4849103045    2.1840171256    0.0739225368
H        3.5936692783    2.1861226711   -1.3056419050
C       -4.0773187216   -0.2965687826    1.9245768351
H       -4.6200940253    0.6304502284    2.1428710808
H       -4.8144847731   -1.0699173806    1.6793553860
H       -3.5631817969   -0.6053697373    2.8424076560
28   
Iteration 12 Energy -0.17765513
C       -3.1055294461   -0.0977119294    0.7758416286
C       -3.5539352627    0.3237884256   -0.4806058851
C       -2.6231857741    0.5020495068   -1.5112053382
N       -1.3062531479    0.2857374589   -1.3528339972
C       -0.8614238943   -0.1203748851   -0.1601905518
C       -1.7293417380   -0.3210633371    0.9298535932
N        0.5176618904   -0.3101383767   -0.1056999327
C        1.3473860743   -0.7249543170    0.8991996834
O        0.9598295425   -1.0285386292    2.0079170768
C        2.8287835737   -0.7863088239    0.5560659646
C        3.2920743788   -1.0403079168   -0.8722889531
C        3.5450814847    0.3050413326   -0.2309533472
C        2.8791356006    1.5763159361   -0.7540530435
H        3.4182816290   -1.2572966575    1.3373146323
H        4.5631056433    0.5072417459    0.0967496056
H       -4.6062476601    0.5129758470   -0.6631366207
H       -2.9429139636    0.8303880446   -2.4988173847
H       -1.3517255741   -0.6461152909    1.8899429531
H        0.9553275153   -0.0829466475   -0.9759561168
H        4.1486421986   -1.6952610818   -1.0147193393
H        2.5522101113   -1.1028032257   -1.6667007517
H        2.0458954809    1.3705905534   -1.4348123919
H        2.5041936347    2.1890040913    0.0747782383
H        3.6025803615    2.1818963713   -1.3129247580
C       -4.0784969462   -0.3031794061    1.9236220896
H       -4.6238743376    0.6220776177    2.1428912817
H       -4.8135325556   -1.0781616966    1.6771783197
H       -3.5637265921   -0.6117435091    2.8411479784
28   
Iteration 13 Energy -0.17765903
C       -3.1060474739   -0.0990689599    0.7757846580
C       -3.5544981312    0.3246540216   -0.4798853138
C       -2.6234076556    0.5061472569   -1.5096446605
N       -1.3062589551    0.2910821805   -1.3512332134
C       -0.8614298111   -0.1165949271   -0.1591373267
C       -1.7296449343   -0.3210694837    0.9299475101
N        0.5177633786   -0.3054931183   -0.1046436974
C        1.3479655463   -0.7182811762    0.9007218472
O        0.9605206223   -1.0166157329    2.0108968868
C        2.8290783270   -0.7837292720    0.5566048112
C        3.2905530966   -1.0436407583   -0.8713391403
C        3.5471329560    0.3032953316   -0.2348916313
C        2.8816211145    1.5750222617   -0.7573750605
H        3.4185235014   -1.2513984723    1.3398884139
H        4.5647819657    0.5050795710    0.0942224736
H       -4.6069571844    0.5129582127   -0.6624821761
H       -2.9430967466    0.8360743023   -2.4967396425
H       -1.3521822180   -0.6480885612    1.8894334190
H        0.9548477474   -0.0815996157   -0.9760670245
H        4.1440179946   -1.7032852994   -1.0106840672
H        2.5493271276   -1.1082576506   -1.6642988545
H        2.0528813526    1.3695142717   -1.4436937884
H        2.5001863627    2.1838773293    0.0713227257
H        3.6070566316    2.1842298797   -1.3096821998
C       -4.0792513734   -0.3083431726    1.9227190618
H       -4.6259744115    0.6157010929    2.1437447183
H       -4.8130855573   -1.0838376177    1.6743180110
H       -3.5644210262   -0.6181307373    2.8397979103
28   
Iteration 14 Energy -0.17766015
C       -3.1065625243   -0.1001280658    0.7756796795
C       -3.5546513228    0.3262767460   -0.4791890877
C       -2.6230593555    0.5102747981   -1.5080230289
N       -1.3058774732    0.2953237949   -1.3495611707
C       -0.8614180065   -0.1144815150   -0.1580930662
C       -1.7301601770   -0.3219584721    0.9299704582
N        0.5177530662   -0.3034784951   -0.1034628450
C        1.3483543640   -0.7142728504    0.9023890713
O        0.9609230321   -1.0089787558    2.0135001638
C        2.8292463864   -0.7817271553    0.5578556268
C        3.2898841647   -1.0456681941   -0.8696226403
C        3.5479994936    0.3025748988   -0.2367310785
C        2.8828290910    1.5737730743   -0.7608193754
H        3.4186700758   -1.2472367852    1.3424411002
H        4.5657632652    0.5043274401    0.0920481823
H       -4.6070912620    0.5146142952   -0.6618738182
H       -2.9423915183    0.8421725017   -2.4945725816
H       -1.3530121765   -0.6513349492    1.8887835227
H        0.9545544696   -0.0814720295   -0.9755242898
H        4.1421532040   -1.7072366594   -1.0071305130
H        2.5485197718   -1.1111626597   -1.6623824187
H        2.0552356498    1.3674810035   -1.4483044235
H        2.5001220397    2.1830985762    0.0669431249
H        3.6088696553    2.1827987212   -1.3125292530
C       -4.0801731199   -0.3124449961    1.9216910512
H       -4.6274219925    0.6108452882    2.1445582747
H       -4.8134746089   -1.0877894969    1.6712600409
H       -3.5655819274   -0.6239888235    2.8383040961
28   
Iteration 15 Energy -0.17766400
C       -3.1081726677   -0.1040968651    0.7752426247
C       -3.5543542196    0.3336548943   -0.4763398901
C       -2.6208286033    0.5272515454   -1.5015776730
N       -1.3037206250    0.3116472055   -1.3428639405
C       -0.8610791969   -0.1074460978   -0.1540503925
C       -1.7319312558   -0.3264222027    0.9300008688
N        0.5178971274   -0.2977356661   -0.0990613318
C        1.3495591675   -0.7002206014    0.9092709833
O        0.9625928358   -0.9818652414    2.0238046461
C        2.8297579722   -0.7740694614    0.5635358173
C        3.2876687043   -1.0529499101   -0.8619662619
C        3.5501594445    0.3005487224   -0.2425724850
C        2.8858837012    1.5686953376   -0.7748645261
H        3.4193806598   -1.2316142555    1.3526452413
H        4.5686812608    0.5029675014    0.0834415322
H       -4.6065728168    0.5230026006   -0.6592800626
H       -2.9385537221    0.8675465489   -2.4857821968
H       -1.3564071095   -0.6656448137    1.8860306625
H        0.9540556077   -0.0821313097   -0.9730720037
H        4.1368529273   -1.7197539709   -0.9930771517
H        2.5462163260   -1.1221699884   -1.6543312800
H        2.0605611423    1.3581811731   -1.4638635879
H        2.5010410661    2.1825101547    0.0485765937
H        3.6131783957    2.1748759270   -1.3280489690
C       -4.0836678595   -0.3279984197    1.9173914882
H       -4.6323104803    0.5926271144    2.1477328890
H       -4.8155037947   -1.1019774149    1.6585972645
H       -3.5703816767   -0.6472112833    2.8320862184
28   
Iteration 16 Energy -0.17768020
C       -3.1152090448   -0.1236526831    0.7724894755
C       -3.5514919307    0.3727658464   -0.4603495875
C       -2.6086901758    0.6143419577   -1.4664634438
N       -1.2923012818    0.3934944944   -1.3069089879
C       -0.8588750103   -0.0741536827   -0.1332697222
C       -1.7399957662   -0.3505115921    0.9289113406
N        0.5188914554   -0.2725428845   -0.0773651485
C        1.3556890059   -0.6312503729    0.9431632723
O        0.9723636635   -0.8481354756    2.0728583740
C        2.8325940462   -0.7346828074    0.5926768850
C        3.2772060948   -1.0876860618   -0.8205030195
C        3.5586395087    0.2909727549   -0.2699388613
C        2.8976953922    1.5410599996   -0.8464030569
H        3.4242340464   -1.1516224672    1.4025062001
H        4.5811229579    0.4982418944    0.0402564741
H       -4.6024087292    0.5687761560   -0.6438420567
H       -2.9183185143    0.9982001847   -2.4371278089
H       -1.3727343365   -0.7403636422    1.8687780085
H        0.9520852520   -0.0875649088   -0.9599026182
H        4.1134881367   -1.7759620715   -0.9194797237
H        2.5350777482   -1.1785331096   -1.6100598811
H        2.0801603919    1.3070167623   -1.5373477763
H        2.5060561965    2.1808342199   -0.0462599970
H        3.6292921999    2.1298626035   -1.4125152516
C       -4.1002171451   -0.4053538947    1.8933115393
H       -4.6549553412    0.5011756360    2.1618170278
H       -4.8255958316   -1.1698473171    1.5917177091
H       -3.5938004239   -0.7646781273    2.7968571565
28   
Iteration 17 Energy -0.17766951
C       -3.1219096574   -0.1471563884    0.7678104261
C       -3.5477792634    0.4228601550   -0.4363398151
C       -2.5953957333    0.7232969485   -1.4171029886
N       -1.2798877543    0.4942305430   -1.2594228203
C       -0.8562131703   -0.0352335474   -0.1091086508
C       -1.7478803410   -0.3814372700    0.9229779430
N        0.5195572492   -0.2458888434   -0.0540364314
C        1.3620441859   -0.5470252813    0.9801772000
O        0.9824887532   -0.6842315020    2.1230919255
C        2.8356544670   -0.6838047180    0.6285525463
C        3.2663515068   -1.1271106149   -0.7633505259
C        3.5663451117    0.2789417010   -0.2999174299
C        2.9080061322    1.5017870282   -0.9343639893
H        3.4300444290   -1.0482678487    1.4613544828
H        4.5931062113    0.4938274530   -0.0096614579
H       -4.5971972649    0.6285883134   -0.6178283977
H       -2.8965585555    1.1621319500   -2.3669075297
H       -1.3884783032   -0.8337139969    1.8377607685
H        0.9493726285   -0.0962467657   -0.9449072579
H        4.0897220405   -1.8354217307   -0.8199702464
H        2.5245445925   -1.2483406567   -1.5491284505
H        2.0979725970    1.2354319767   -1.6226817584
H        2.5100609898    2.1759805486   -0.1662276876
H        3.6432989850    2.0661468882   -1.5202244505
C       -4.1167350497   -0.4993249302    1.8595711750
H       -4.6779469334    0.3874390872    2.1763190176
H       -4.8351123617   -1.2479134013    1.5058607384
H       -3.6174726024   -0.9093433649    2.7453124448
28   
Iteration 18 Energy -0.17774249
C       -3.1179074014   -0.1389557496    0.7694623841
C       -3.5485242783    0.4089134289   -0.4434210523
C       -2.6009902750    0.6894364976   -1.4349914915
N       -1.2853735348    0.4600741339   -1.2796499376
C       -0.8573639773   -0.0518834848   -0.1228582782
C       -1.7435984743   -0.3739260367    0.9216390908
N        0.5183070224   -0.2624249569   -0.0681898899
C        1.3556319096   -0.5803257939    0.9650643642
O        0.9706885622   -0.7473796989    2.1024690665
C        2.8322791239   -0.7011358962    0.6193133798
C        3.2740958551   -1.1126589764   -0.7788831075
C        3.5613262263    0.2859390400   -0.2846880287
C        2.9016116663    1.5151393981   -0.9058927506
H        3.4237720109   -1.0833316237    1.4461996583
H        4.5857162879    0.5014067220    0.0134016330
H       -4.5983925155    0.6138963809   -0.6230748799
H       -2.9062179084    1.1120512405   -2.3908356706
H       -1.3793897167   -0.8059056172    1.8443432988
H        0.9517075226   -0.0973838332   -0.9545019567
H        4.1060851900   -1.8096580575   -0.8486413862
H        2.5352145319   -1.2264193426   -1.5685158293
H        2.0870778869    1.2566758615   -1.5917414792
H        2.5078385158    2.1826372211   -0.1297918407
H        3.6347794741    2.0840201632   -1.4900548865
C       -4.1078547610   -0.4664793054    1.8734046185
H       -4.6642581555    0.4281969123    2.1760710882
H       -4.8310939517   -1.2187881751    1.5379540864
H       -3.6051640534   -0.8615287268    2.7640182389
28   
Iteration 19 Energy -0.17786996
C       -3.1167386103   -0.1515625384    0.7663845349
C       -3.5435240332    0.4470373118   -0.4238750469
C       -2.5943175649    0.7613184119   -1.4040170879
N       -1.2800907275    0.5183121160   -1.2578583254
C       -0.8558519991   -0.0387550635   -0.1207302539
C       -1.7437918323   -0.3999846978    0.9088236987
N        0.5165376606   -0.2673639848   -0.0696052224
C        1.3496761595   -0.5425322271    0.9787894957
O        0.9581451755   -0.6691103595    2.1193838708