28
Properties=species:S:1:pos:R:3 Iteration=T 25=T Energy=T -0.17551658=T pbc="F F F"
C       -3.06159520      -0.53409668       0.90568385
C       -3.60611923       0.14367214      -0.19109585
C       -2.74861399       0.81749097      -1.07038218
N       -1.41361907       0.84253886      -0.91576300
C       -0.87894291       0.18043215       0.11374942
C       -1.66776207      -0.50192246       1.05610206
N        0.50418915       0.27654978       0.22563739
C        1.40042283      -0.59608147       0.76924893
O        1.07515664      -1.60387343       1.36218082
C        2.86235361      -0.23909996       0.58527876
C        3.57881507      -0.75627449      -0.64536840
C        3.41934332       0.73656785      -0.44908811
C        2.62426493       1.53965576      -1.47747762
H        3.42386783      -0.32604038       1.51055862
H        4.30487782       1.28333744      -0.13066419
H       -4.67690262       0.15692677      -0.36336180
H       -3.14507112       1.35993787      -1.92710516
H       -1.20375449      -1.00077373       1.89833358
H        0.88220131       1.04095391      -0.29705294
H        4.56957368      -1.18428072      -0.51187127
H        2.97749114      -1.24398669      -1.41004926
H        1.86340424       0.93286757      -1.98376158
H        2.13148048       2.40097649      -1.01052053
H        3.29353252       1.92609419      -2.25550207
C       -3.95193233      -1.26968894       1.89148654
H       -4.64744272      -0.57775654       2.38041023
H       -4.54316294      -2.03990061       1.38268127
H       -3.36605591      -1.76401861       2.67531461
