28
Properties=species:S:1:pos:R:3 Iteration=T 12=T Energy=T -611.65494489=T pbc="F F F"
C       -3.13308880      -0.34476814       0.54597320
C       -3.76443312       0.89336899       0.70785418
C       -2.97949189       2.03125980       0.81226850
N       -1.64725354       2.02281188       0.77064914
C       -1.05236262       0.83842372       0.61721026
C       -1.74383828      -0.37234289       0.49860033
N        0.33853558       0.93640687       0.58696720
C        1.27758767      -0.05100320       0.43163126
O        0.99810899      -1.23203502       0.27930770
C        2.67685346       0.46265258       0.42045236
C        3.79702549      -0.53837094       0.47417716
C        3.54982856       0.19360865      -0.80100451
C        3.01801058      -0.50677290      -2.02335836
H        2.83114055       1.42295696       0.90774724
H        4.23775485       1.01040000      -1.01350072
H       -4.84734849       0.96717738       0.74963525
H       -3.44003454       3.00984461       0.93646095
H       -1.19056493      -1.29359164       0.37064623
H        0.65542383       1.89264416       0.67670890
H        4.66750332      -0.29020775       1.07367671
H        3.47396795      -1.57499151       0.51871753
H        2.30487272      -1.28922262      -1.75136954
H        2.51279416       0.19834992      -2.69328604
H        3.84021195      -0.96973243      -2.58036056
C       -3.93287734      -1.60863441       0.42391433
H       -4.55359515      -1.76548139       1.31345884
H       -4.60899379      -1.56146360      -0.43739358
H       -3.28573530      -2.48108504       0.30181379
