28
Properties=species:S:1:pos:R:3 Iteration=T 22=T Energy=T -0.17663572=T pbc="F F F"
C       -3.14031814      -0.29511279       0.68069923
C       -3.54903169       0.55566974      -0.35277271
C       -2.58050397       1.26218651      -1.07763631
N       -1.26293172       1.15944551      -0.83226392
C       -0.85787440       0.33312654       0.13581979
C       -1.76336083      -0.39562198       0.92609106
N        0.51560773       0.29975027       0.35209322
C        1.29907682      -0.71129784       0.82614140
O        0.85976908      -1.75979958       1.25131140
C        2.78890633      -0.44981413       0.77425462
C        3.59685962      -1.05934365      -0.35133028
C        3.47713832       0.44794213      -0.24855422
C        2.79910103       1.21265258      -1.38401746
H        3.25193601      -0.50490005       1.75470804
H        4.35244496       0.98152018       0.11690801
H       -4.59967957       0.67653823      -0.59350912
H       -2.87016010       1.93727201      -1.88122831
H       -1.40157162      -1.03304025       1.72388485
H        0.99013505       1.08772057      -0.04228268
H        4.55288326      -1.51266484      -0.10029981
H        3.05087061      -1.56886704      -1.14284382
H        2.01354087       0.62193912      -1.87143847
H        2.35548513       2.14758393      -1.02118833
H        3.53187937       1.47410823      -2.15676568
C       -4.15359756      -1.07498292       1.49963485
H       -4.91693806      -0.40754396       1.91611324
H       -4.66082893      -1.82338051       0.87976635
H       -3.67883535      -1.60087902       2.33630043
