28
Properties=species:S:1:pos:R:3 Iteration=T 38=T Energy=T -0.17903469=T pbc="F F F"
C       -3.12904077      -0.26448572       0.83797155
C       -3.73691515      -0.08619393      -0.41002269
C       -2.94827226      -0.14066270      -1.56658653
N       -1.62119459      -0.35255087      -1.53835855
C       -1.02467482      -0.50163759      -0.35281238
C       -1.74404514      -0.48350834       0.85470506
N        0.34413472      -0.74563239      -0.40191668
C        1.31254089      -0.43974681       0.51105551
O        1.08987336       0.01447501       1.61489807
C        2.71262201      -0.74393414       0.03474706
C        3.15499547      -0.35865063      -1.36689201
C        3.69521363       0.39223966      -0.17000264
C        3.31072062       1.84724548       0.07362625
H        3.12293911      -1.66079923       0.44632320
H        4.72584913       0.18995609       0.11429530
H       -4.80449032       0.08745327      -0.49102718
H       -3.39555198      -0.01363029      -2.55107274
H       -1.23328324      -0.63967535       1.79723048
H        0.65013302      -1.05571809      -1.30329054
H        3.83473149      -1.02853866      -1.88833374
H        2.45697901       0.16928812      -2.01353991
H        2.29773731       2.06865676      -0.28405475
H        3.34528213       2.08090320       1.14462248
H        4.00263107       2.52330680      -0.44214997
C       -3.94417805      -0.22326665       2.11840927
H       -4.41005646       0.76004007       2.25147398
H       -4.74160604      -0.97511791       2.09803804
H       -3.32307201      -0.41961366       3.00026135
