28
Properties=species:S:1:pos:R:3 Iteration=T 35=T Energy=T -611.64840924=T pbc="F F F"
C       -3.15173992      -0.17349158       0.86182516
C       -3.89249072      -0.82132826      -0.13239132
C       -3.21725278      -1.38034790      -1.20675891
N       -1.89325277      -1.34455912      -1.35389494
C       -1.19303645      -0.72781892      -0.39982509
C       -1.76880869      -0.12583400       0.72451350
N        0.18038784      -0.74998432      -0.63943754
C        1.20634502      -0.22451161       0.10686463
O        1.03760620       0.40641160       1.13725364
C        2.54687094      -0.52680922      -0.49962836
C        3.10177536       0.38310894      -1.57646157
C        3.76826600       0.30580495      -0.23532876
C        3.77213934       1.49224255       0.69502855
H        2.71241078      -1.59177462      -0.65712150
H        4.68813052      -0.27631442      -0.21326664
H       -4.97474949      -0.88788477      -0.06832017
H       -3.76495118      -1.89028914      -1.99745370
H       -1.13457825       0.35979467       1.45467031
H        0.41528668      -1.21611923      -1.50621825
H        3.57137944      -0.07330243      -2.44312424
H        2.53763776       1.28708624      -1.79423516
H        2.85909080       2.08259431       0.59766052
H        3.84102103       1.17451754       1.73951727
H        4.62982018       2.13652071       0.47006691
C       -3.83100951       0.46722058       2.03656522
H       -4.36105871       1.37617255       1.72744129
H       -4.57319881      -0.20624607       2.47804098
H       -3.11203836       0.74534808       2.81161355
