28   
Iteration 0 Energy -0.17279067
C       -3.1588777100   -0.1716748800    0.4379062400
C       -3.5355954700    0.9779235700   -0.2643237500
C       -2.5451730800    1.8421034200   -0.7062961600
N       -1.2425892100    1.6469005200   -0.5039180200
C       -0.8911694300    0.5482885000    0.1671859000
C       -1.8035785400   -0.3917508500    0.6581944800
N        0.4899693800    0.4306393600    0.3230811600
C        1.2112947400   -0.5407202000    0.9655732100
O        0.7117902700   -1.4984717600    1.5315616700
C        2.6993140600   -0.3170569700    0.9526980700
C        3.6116420800   -1.2292572200    0.1881756700
C        3.5113084000    0.2201821700   -0.2022404500
C        2.9324950600    0.5845666800   -1.5478401100
H        3.0517933600   -0.0389132400    1.9447882100
H        4.3480106800    0.8479881000    0.0998515700
H       -4.5815572600    1.1933427400   -0.4628767700
H       -2.8060218800    2.7445209900   -1.2565489900
H       -1.4408116600   -1.2592196000    1.1943197500
H        0.9975711600    1.2012315100   -0.0890239100
H        4.5053526300   -1.5951845200    0.6840475900
H        3.1418174800   -1.9497551700   -0.4767583500
H        2.1111193600   -0.0809903700   -1.8316320200
H        2.5559659500    1.6152048900   -1.5763138500
H        3.7061663500    0.5022528200   -2.3190038200
C       -4.1884786400   -1.1357208700    0.9501095600
H       -4.7777316800   -0.6810522100    1.7552928000
H       -4.8891765100   -1.4210643800    0.1579772000
H       -3.7248443100   -2.0441097200    1.3436109100
28   
Iteration 1 Energy -0.17466187
C       -3.1875261818   -0.1623256134    0.4256789028
C       -3.5097378333    0.9969441818   -0.2860999051
C       -2.4787479018    1.8260628838   -0.7059036522
N       -1.1873625032    1.5845689222   -0.4713569875
C       -0.8759041965    0.4780580440    0.2090183838
C       -1.8430458806   -0.4245874905    0.6760905017
N        0.5023849919    0.3289384212    0.3887783908
C        1.2753166943   -0.6105451218    1.0217662723
O        0.8658238607   -1.5933167372    1.6127838375
C        2.7486429905   -0.3080609260    0.9611146617
C        3.6820659868   -1.1786870377    0.1720143109
C        3.4921641760    0.2622109244   -0.2249176846
C        2.8501582069    0.5850802247   -1.5545399487
H        3.1192496442   -0.0033982744    1.9381327862
H        4.3036587495    0.9366081641    0.0433436113
H       -4.5425348290    1.2475821702   -0.5093315940
H       -2.6947341986    2.7359250239   -1.2633275633
H       -1.5350489676   -1.3051120599    1.2220937749
H        1.0024427200    1.1003682821   -0.0271160458
H        4.6101027789   -1.4928474302    0.6402205170
H        3.2291755903   -1.9288127484   -0.4718347193
H        2.0558364321   -0.1249776928   -1.8072077075
H        2.4194925662    1.5943045033   -1.5750613029
H        3.6009364769    0.5376588590   -2.3510878769
C       -4.2609319826   -1.0924332238    0.9164176038
H       -4.8528603701   -0.6170887565    1.7075103020
H       -4.9523206526   -1.3565099849    0.1087001630
H       -3.8366908376   -2.0154041992    1.3217187619
28   
Iteration 2 Energy -0.17646959
C       -3.1860099455   -0.1731535291    0.4255642219
C       -3.5142029934    0.9829308418   -0.2892930964
C       -2.5065333370    1.8475241533   -0.7237688298
N       -1.2074914694    1.6153542995   -0.4809065587
C       -0.8471241122    0.5237497680    0.2022377474
C       -1.8223522373   -0.3817828233    0.6616734642
N        0.5289562085    0.3892657225    0.3892630659
C        1.2775209844   -0.5576888316    1.0319263297
O        0.8096071489   -1.5279768466    1.5927358282
C        2.7643516094   -0.3056704858    0.9916656258
C        3.6451996096   -1.2197606818    0.1773277706
C        3.5040482606    0.2363987246   -0.2183476104
C        2.8514853357    0.5877151860   -1.5482594066
H        3.1765527501   -0.0140528102    1.9530281690
H        4.3441800049    0.8884661689    0.0128216372
H       -4.5498399589    1.2164748243   -0.5119763363
H       -2.7445161762    2.7510985659   -1.2826515633
H       -1.5252257837   -1.2629699426    1.2121189173
H        1.0347901520    1.1518324514   -0.0211811406
H        4.5746010283   -1.5602183339    0.6275245992
H        3.1537193821   -1.9592759920   -0.4516540938
H        2.0239226855   -0.0883493284   -1.7954552448
H        2.4647149235    1.6138751572   -1.5423871568
H        3.5841589914    0.5166532930   -2.3609094072
C       -4.2478862276   -1.1328212974    0.9199625366
H       -4.8484991248   -0.6711663323    1.7122978755
H       -4.9295448942   -1.4143961221    0.1089681263
H       -3.8085776438   -2.0518521932    1.3252725388
28   
Iteration 3 Energy -0.17688127
C       -3.1488605281   -0.1633858983    0.4191216643
C       -3.5143524502    0.9820161486   -0.2977810471
C       -2.5024325216    1.8526393399   -0.7279482276
N       -1.1999771026    1.6289403305   -0.4765890638
C       -0.8454738812    0.5397889870    0.2125335743
C       -1.7887697501   -0.3952875078    0.6843729610
N        0.5269579761    0.4129443929    0.4102012247
C        1.2641622971   -0.5377011033    1.0542509302
O        0.7984963762   -1.5150464954    1.6006128619
C        2.7567985693   -0.3022997763    1.0101335550
C        3.6129836895   -1.2324129036    0.1761347148
C        3.4850872301    0.2292669381   -0.2190604327
C        2.8310786909    0.5854961748   -1.5556607703
H        3.1779187276   -0.0161017821    1.9678130528
H        4.3363848721    0.8760188187   -0.0164173121
H       -4.5523438202    1.2010640475   -0.5211664581
H       -2.7424546923    2.7540113476   -1.2895744477
H       -1.5015981008   -1.2776699900    1.2395076076
H        1.0376882494    1.1690063554    0.0020251346
H        4.5509154924   -1.5711619267    0.6112707946
H        3.1072997557   -1.9748990970   -0.4385844412
H        1.9986005779   -0.0845216607   -1.8062478966
H        2.4537934898    1.6146623185   -1.5388500123
H        3.5606976703    0.5115229133   -2.3713231159
C       -4.2160517430   -1.1337749704    0.9034925350
H       -4.8256165489   -0.6785733109    1.6925332307
H       -4.8843901634   -1.4206861335    0.0829498053
H       -3.7765375102   -2.0536519724    1.3098476240
28   
Iteration 4 Energy -0.17721563
C       -3.1690693078   -0.1672057066    0.4259697288
C       -3.5182715734    0.9819895394   -0.2928363957
C       -2.5031264243    1.8466334207   -0.7223802132
N       -1.1974078497    1.6378970712   -0.4823532397
C       -0.8502528495    0.5471935650    0.2063469485
C       -1.8036309614   -0.3769252240    0.6745439099
N        0.5210844110    0.4095730009    0.4063907655
C        1.2584829810   -0.5460285714    1.0444127664
O        0.7987450261   -1.5258363601    1.5924934839
C        2.7504643689   -0.3078294785    1.0005408716
C        3.6217546550   -1.2286629827    0.1733795935
C        3.4903440171    0.2315423180   -0.2171608543
C        2.8536819181    0.5852471093   -1.5604779424
H        3.1484300412   -0.0248613713    1.9699357140
H        4.3383919237    0.8780354568    0.0000559351
H       -4.5546120556    1.2083359326   -0.5186449399
H       -2.7470121068    2.7467568984   -1.2842665412
H       -1.5001279531   -1.2548160859    1.2293604600
H        1.0356627392    1.1652223224   -0.0014915969
H        4.5578571703   -1.5620868562    0.6151953260
H        3.1265226064   -1.9722429237   -0.4480138005
H        2.0335497614   -0.0942469691   -1.8232165515
H        2.4634931618    1.6099928533   -1.5516536935
H        3.5971634569    0.5201459171   -2.3639028031
C       -4.2297432412   -1.1387101324    0.9162964577
H       -4.8367411836   -0.6845026837    1.7079911193
H       -4.9015180057   -1.4290982740    0.1000889471
H       -3.7841097356   -2.0553081850    1.3209946019
28   
Iteration 5 Energy -0.17727697
C       -3.1653129310   -0.1669689462    0.4245110023
C       -3.5028977347    0.9815312487   -0.2993525154
C       -2.4920463411    1.8472452890   -0.7327650692
N       -1.1913232104    1.6231666936   -0.4814635623
C       -0.8478196506    0.5333182492    0.2109365991
C       -1.8042929436   -0.3863800098    0.6801590717
N        0.5243615278    0.3977933790    0.4115743628
C        1.2675970935   -0.5566751523    1.0459525215
O        0.8062871770   -1.5370701303    1.5922336277
C        2.7571326186   -0.3105160972    1.0020839184
C        3.6308450059   -1.2215770521    0.1685684940
C        3.4846442231    0.2372282784   -0.2168916475
C        2.8303925614    0.5880613193   -1.5503629103
H        3.1627772488   -0.0280727775    1.9689335677
H        4.3316421226    0.8863187014   -0.0030934471
H       -4.5388427624    1.2079452370   -0.5279185733
H       -2.7297476525    2.7466712990   -1.2983839425
H       -1.5041418059   -1.2627978189    1.2388225957
H        1.0363858805    1.1557025834    0.0023203264
H        4.5735201278   -1.5487085379    0.6003830530
H        3.1353274331   -1.9673088131   -0.4497544307
H        2.0152344915   -0.1007433577   -1.8031838170
H        2.4270848443    1.6077946256   -1.5365960129
H        3.5657429798    0.5334049104   -2.3618279490
C       -4.2333974118   -1.1285722585    0.9132950980
H       -4.8403970016   -0.6677013905    1.7011760954
H       -4.9043192714   -1.4169671341    0.0958302753
H       -3.7944315680   -2.0459187222    1.3224113932
28   
Iteration 6 Energy -0.17729355
C       -3.1653813745   -0.1620356320    0.4227868587
C       -3.5155289177    0.9806175385   -0.3042166732
C       -2.4979857450    1.8398930426   -0.7353927386
N       -1.1959982454    1.6209870232   -0.4844541159
C       -0.8445253474    0.5356354764    0.2109739327
C       -1.8044374944   -0.3804826638    0.6806504085
N        0.5279546325    0.4040308374    0.4121677297
C        1.2671574382   -0.5552134568    1.0439392235
O        0.8009971132   -1.5362261828    1.5846342408
C        2.7579009137   -0.3147094876    1.0036886262
C        3.6283886474   -1.2255800204    0.1662661100
C        3.4861989213    0.2351611660   -0.2142290118
C        2.8335862762    0.5915291989   -1.5474473390
H        3.1665016622   -0.0377794886    1.9707720049
H        4.3366686170    0.8796491199   -0.0003750604
H       -4.5516820175    1.2047739622   -0.5338292782
H       -2.7338231028    2.7378873037   -1.3040687522
H       -1.5081648317   -1.2557501695    1.2429106501
H        1.0404923514    1.1618595662    0.0037879130
H        4.5721440227   -1.5548679784    0.5942135965
H        3.1296862038   -1.9692915121   -0.4519930664
H        2.0195503521   -0.0969875697   -1.8050503785
H        2.4289529026    1.6106326137   -1.5290341033
H        3.5702519712    0.5418315928   -2.3580834522
C       -4.2286028497   -1.1268872928    0.9164573153
H       -4.8361174080   -0.6663594292    1.7041253325
H       -4.8994214454   -1.4209708197    0.1009071600
H       -3.7847581781   -2.0411429075    1.3274910626
28   
Iteration 7 Energy -0.17733605
C       -3.1655421894   -0.1640673597    0.4262915259
C       -3.5115796284    0.9777013524   -0.3045993123
C       -2.4967474231    1.8389762795   -0.7398625835
N       -1.1942387323    1.6225120552   -0.4884340162
C       -0.8476338641    0.5381263075    0.2107057101
C       -1.8036977749   -0.3799360394    0.6850584112
N        0.5240386407    0.4057986597    0.4147355307
C        1.2625327119   -0.5557976018    1.0431310221
O        0.7993450940   -1.5398410056    1.5805023813
C        2.7542235581   -0.3169837076    1.0029151393
C        3.6250445062   -1.2268480550    0.1638519718
C        3.4855553719    0.2355913071   -0.2132993086
C        2.8406283120    0.5954245773   -1.5503818772
H        3.1593654031   -0.0438518862    1.9722916102
H        4.3367433591    0.8784419774    0.0024928203
H       -4.5475117679    1.2012202443   -0.5353491753
H       -2.7350884207    2.7347260052   -1.3110374105
H       -1.5064046601   -1.2529377160    1.2503781650
H        1.0375973443    1.1631812875    0.0078409180
H        4.5689371885   -1.5562765857    0.5916888939
H        3.1269163577   -1.9699482284   -0.4557360030
H        2.0300945068   -0.0937901680   -1.8175643872
H        2.4338149537    1.6135520946   -1.5296396709
H        3.5829170196    0.5511017704   -2.3562726837
C       -4.2308385276   -1.1272576112    0.9210713394
H       -4.8387660153   -0.6643923588    1.7070252965
H       -4.9006391189   -1.4226446437    0.1050852324
H       -3.7890611509   -2.0415768894    1.3347086902
28   
Iteration 8 Energy -0.17735300
C       -3.1651330728   -0.1635015995    0.4272075947
C       -3.5065370590    0.9748869566   -0.3110469171
C       -2.4904926466    1.8325785957   -0.7497779285
N       -1.1888543659    1.6158047689   -0.4950433609
C       -0.8460274984    0.5343036941    0.2103044491
C       -1.8040488629   -0.3792502293    0.6888854666
N        0.5250266357    0.4009912894    0.4180717551
C        1.2641600449   -0.5634555504    1.0414881624
O        0.8008095419   -1.5506680148    1.5730562477
C        2.7552135560   -0.3223141060    1.0029598992
C        3.6270745178   -1.2255768507    0.1583079806
C        3.4830902535    0.2381206416   -0.2111501892
C        2.8334997173    0.6023486162   -1.5443059070
H        3.1610446064   -0.0542209209    1.9735406345
H        4.3341178874    0.8807962248    0.0058553827
H       -4.5417232081    1.1987970463   -0.5449237939
H       -2.7268779854    2.7253827256   -1.3263462912
H       -1.5075079560   -1.2485888366    1.2603188979
H        1.0392042288    1.1593302983    0.0133444568
H        4.5734487764   -1.5542830359    0.5810760818
H        3.1287623481   -1.9672185034   -0.4628348614
H        2.0273696757   -0.0911004213   -1.8137516415
H        2.4189114239    1.6171804094   -1.5162992411
H        3.5745247712    0.5689714570   -2.3518534065
C       -4.2327700007   -1.1215715802    0.9259403132
H       -4.8406226156   -0.6531546857    1.7086659748
H       -4.9023777707   -1.4199521514    0.1109103252
H       -3.7932798481   -2.0344320491    1.3449982364
28   
Iteration 9 Energy -0.17739189
C       -3.1675290378   -0.1604112546    0.4334311127
C       -3.4999851611    0.9627901770   -0.3314049146
C       -2.4803617109    1.8076381945   -0.7851915006
N       -1.1811724737    1.5900164229   -0.5198535705
C       -0.8446089729    0.5216713603    0.2082370460
C       -1.8086686931   -0.3756073968    0.7045491475
N        0.5251741657    0.3895509615    0.4257846029
C        1.2647749741   -0.5870423405    1.0298136263
O        0.8003786672   -1.5856733633    1.5389087533
C        2.7552808797   -0.3428487750    0.9994958708
C        3.6315058624   -1.2250787219    0.1381795291
C        3.4816735953    0.2447800861   -0.2020247762
C        2.8313189516    0.6309582064   -1.5279750561
H        3.1581391686   -0.0961615070    1.9770831015
H        4.3329028506    0.8830971270    0.0268279261
H       -4.5335114194    1.1853779518   -0.5740012795
H       -2.7109204982    2.6888541431   -1.3815996227
H       -1.5167561378   -1.2313422521    1.2985081654
H        1.0403344503    1.1517854934    0.0291380457
H        4.5820096109   -1.5558989203    0.5497192031
H        3.1341400612   -1.9582147762   -0.4936849452
H        2.0406104997   -0.0717956557   -1.8182316594
H        2.3949432350    1.6356972643   -1.4760851570
H        3.5764585088    0.6346338479   -2.3323638956
C       -4.2408703149   -1.1016981860    0.9499278708
H       -4.8473935856   -0.6138286299    1.7217372535
H       -4.9109979178   -1.4131424897    0.1402654125
H       -3.8068643695   -2.0079024433    1.3884084462
28   
Iteration 10 Energy -0.17744619
C       -3.1705869003   -0.1512851989    0.4504530337
C       -3.4833689225    0.9237664889   -0.3882957806
C       -2.4520325302    1.7293308325   -0.8842420654
N       -1.1576967977    1.5168470961   -0.5931620018
C       -0.8384358650    0.4897360010    0.1991818549
C       -1.8164533463   -0.3610139933    0.7467591955
N        0.5269321706    0.3623513500    0.4449589262
C        1.2626329708   -0.6483227368    0.9953216801
O        0.7967443119   -1.6774464162    1.4382894383
C        2.7525645205   -0.4005141687    0.9894706440
C        3.6347518905   -1.2266640184    0.0809257196
C        3.4766965759    0.2592068232   -0.1749116689
C        2.8248296259    0.7140997725   -1.4776257206
H        3.1524661641   -0.2156373121    1.9818504780
H        4.3296410106    0.8825099902    0.0866535723
H       -4.5123742526    1.1405451414   -0.6543810291
H       -2.6687212411    2.5741261423   -1.5359812564
H       -1.5371477725   -1.1747608544    1.4027449450
H        1.0461279424    1.1341617076    0.0726940369
H        4.5932301113   -1.5688535290    0.4635666837
H        3.1373921241   -1.9305664774   -0.5833731004
H        2.0701425601   -0.0008154896   -1.8283504506
H        2.3402227938    1.6905670049   -1.3581111523
H        3.5775696153    0.8135456838   -2.2686640173
C       -4.2578562765   -1.0453629091    1.0179537896
H       -4.8600766210   -0.5042974203    1.7569753044
H       -4.9298474188   -1.3955217442    0.2258548218
H       -3.8373410986   -1.9295262131    1.5110437936
28   
Iteration 11 Energy -0.17751334
C       -3.1729779884   -0.1490150474    0.4566681175
C       -3.4854590963    0.9102510594   -0.4022295032
C       -2.4520265310    1.7052533315   -0.9114468726
N       -1.1580475692    1.4973713854   -0.6150185623
C       -0.8401273920    0.4842930684    0.1957100420
C       -1.8193703051   -0.3545917871    0.7587661652
N        0.5236494883    0.3597805577    0.4496686229
C        1.2599318179   -0.6586426675    0.9840452723
O        0.7868114947   -1.6921916545    1.4087725101
C        2.7510043297   -0.4159013512    0.9840162858
C        3.6312524491   -1.2316509525    0.0640257542
C        3.4818850431    0.2592952094   -0.1677700257
C        2.8369883691    0.7400673714   -1.4650617995
H        3.1488940592   -0.2496560787    1.9804405340
H        4.3368105327    0.8742368572    0.1067657893
H       -4.5140093702    1.1227905555   -0.6733591026
H       -2.6670606101    2.5382603624   -1.5787246959
H       -1.5408585846   -1.1562719342    1.4300191822
H        1.0432202249    1.1339153057    0.0832782855
H        4.5867647248   -1.5850834495    0.4439138983
H        3.1323328456   -1.9219924588   -0.6132406393
H        2.0856734085    0.0314371132   -1.8353493195
H        2.3502105197    1.7131906602   -1.3285807607
H        3.5944302331    0.8572557965   -2.2491684742
C       -4.2613848759   -1.0318901207    1.0398630572
H       -4.8624383970   -0.4775743126    1.7699501460
H       -4.9342604537   -1.3944581312    0.2541061580
H       -3.8418330399   -1.9082729219    1.5475399085
28   
Iteration 12 Energy -0.17772703
C       -3.1717280160   -0.1379250963    0.4848512583
C       -3.4832716721    0.8322938625   -0.4745471669
C       -2.4434997307    1.5740202022   -1.0511619809
N       -1.1509999355    1.3956885834   -0.7269020474
C       -0.8361877813    0.4623849328    0.1757822392
C       -1.8197636327   -0.3132981120    0.8148978316
N        0.5190416270    0.3605479526    0.4723350900
C        1.2349386071   -0.7078259737    0.9276434753
O        0.7433788952   -1.7645537009    1.2658942666
C        2.7311154672   -0.4943027796    0.9538169349
C        3.5955417039   -1.2567268916   -0.0265234530
C        3.4945929803    0.2536203113   -0.1321061099
C        2.8775237341    0.8708600103   -1.3865062966
H        3.1233256239   -0.4226113754    1.9634106723
H        4.3590724325    0.8220372424    0.2053822781
H       -4.5100870695    1.0170420986   -0.7709247626
H       -2.6532158115    2.3399174944   -1.7960358337
H       -1.5416579091   -1.0466069251    1.5615732893
H        1.0464341620    1.1424229746    0.1376491931
H        4.5313134309   -1.6750215511    0.3366158055
H        3.0868794581   -1.8680797636   -0.7694396972
H        2.1302590253    0.2106800664   -1.8445168400
H        2.3948471716    1.8289960996   -1.1602982151
H        3.6516613188    1.0633298244   -2.1388992091
C       -4.2634319853   -0.9618533161    1.1460065901
H       -4.8608166667   -0.3429556069    1.8253945198
H       -4.9391276321   -1.3896687479    0.3962122645
H       -3.8461325628   -1.7922051724    1.7279972901
28   
Iteration 13 Energy -0.17778754
C       -3.1698118556   -0.1397571706    0.4839125494
C       -3.4861361557    0.8355349772   -0.4690635844
C       -2.4490934380    1.5819710676   -1.0446849595
N       -1.1542841001    1.4064498999   -0.7287234335
C       -0.8386533599    0.4677607065    0.1677183180
C       -1.8161353396   -0.3145191916    0.8075173035
N        0.5166943222    0.3613634479    0.4608716879
C        1.2323361726   -0.7028679109    0.9259747360
O        0.7373386463   -1.7556556258    1.2718691485
C        2.7281992551   -0.4893297235    0.9546327850
C        3.5920477357   -1.2599622101   -0.0202213008
C        3.4969093206    0.2498407727   -0.1332464140
C        2.8810287331    0.8668678965   -1.3881311556
H        3.1212200769   -0.4084555873    1.9632264021
H        4.3587765893    0.8205283113    0.2070497200
H       -4.5141527991    1.0206205281   -0.7609735573
H       -2.6638458821    2.3515486346   -1.7843091060
H       -1.5314853587   -1.0507108795    1.5492090428
H        1.0453251295    1.1443468210    0.1304965465
H        4.5197300757   -1.6860078315    0.3544976702
H        3.0866582745   -1.8678896857   -0.7681460893
H        2.1151857800    0.2192533988   -1.8330347531
H        2.4228950342    1.8381558778   -1.1669417538
H        3.6518625971    1.0328568486   -2.1501670201
C       -4.2574795331   -0.9695029627    1.1442927733
H       -4.8535744529   -0.3555330861    1.8292612147
H       -4.9350112260   -1.3944342426    0.3945147041
H       -3.8365391832   -1.8022667411    1.7201997440
28   
Iteration 14 Energy -0.17767317
C       -3.1759775730   -0.1282535702    0.5045769247
C       -3.4732795578    0.7754632819   -0.5225055008
C       -2.4260319759    1.4636969053   -1.1488441882
N       -1.1336462329    1.2979881142   -0.8199615580
C       -0.8395580367    0.4172236753    0.1397187773
C       -1.8254284251   -0.2959617687    0.8422105105
N        0.5098282194    0.3124278767    0.4576417475
C        1.2299135804   -0.7736867087    0.8613911776
O        0.7294366261   -1.8472797940    1.1280370930
C        2.7228949582   -0.5536921828    0.9257799629
C        3.6001792832   -1.2521104075   -0.0903301223
C        3.5002564250    0.2602522309   -0.0993272221
C        2.8863084934    0.9648526989   -1.3067190548
H        3.1074425721   -0.5384296010    1.9409093246
H        4.3545071179    0.8097116423    0.2914066965
H       -4.4978683997    0.9526259400   -0.8311074193
H       -2.6307940594    2.1795470529   -1.9432142791
H       -1.5450797947   -0.9660595118    1.6465830851
H        1.0380719996    1.1129062715    0.1700707699
H        4.5208425046   -1.7060483512    0.2683732174
H        3.1075550632   -1.8031756167   -0.8890416754
H        2.1263406168    0.3473564417   -1.8016760313
H        2.4212943317    1.9143822732   -1.0159874349
H        3.6591492159    1.1906501275   -2.0510761377
C       -4.2759359022   -0.8864690923    1.2255923634
H       -4.8564045369   -0.2135012861    1.8671911821
H       -4.9655412575   -1.3497930299    0.5104084321
H       -3.8684703295   -1.6844165351    1.8575013591
28   
Iteration 15 Energy -0.17780382
C       -3.1745658586   -0.1342096741    0.4946034259
C       -3.4789086764    0.8080425056   -0.4948199474
C       -2.4368330948    1.5251802825   -1.0965867621
N       -1.1433903032    1.3513717010   -0.7758621656
C       -0.8402878590    0.4381554622    0.1503186162
C       -1.8225802139   -0.3088085675    0.8230467401
N        0.5129056023    0.3294672049    0.4526231661
C        1.2326708069   -0.7443232792    0.8894204373
O        0.7365179255   -1.8095599732    1.1941374415
C        2.7259688733   -0.5220471836    0.9404853510
C        3.6025042396   -1.2531513999   -0.0528978795
C        3.4982810531    0.2578966921   -0.1145655153
C        2.8822149971    0.9155457227   -1.3471988943
H        3.1118807986   -0.4715431342    1.9539521609
H        4.3533943427    0.8218313638    0.2529860953
H       -4.5051734961    0.9919923624   -0.7937570533
H       -2.6461853207    2.2700663466   -1.8625587019
H       -1.5405561082   -1.0119286438    1.5976076174
H        1.0408243600    1.1233905088    0.1467540174
H        4.5273238729   -1.6895422499    0.3167294519
H        3.1080893025   -1.8349934966   -0.8283289127
H        2.1183380669    0.2811728334   -1.8139554327
H        2.4212382118    1.8775325530   -1.0932844376
H        3.6530072666    1.1085805294   -2.1028131122
C       -4.2694844206   -0.9263429754    1.1864473860
H       -4.8555545969   -0.2814255020    1.8513481826
H       -4.9549473157   -1.3685904541    0.4541462304
H       -3.8566874567   -1.7435528113    1.7896239752
28   
Iteration 16 Energy -0.17785357
C       -3.1731233503   -0.1368690305    0.4910195060
C       -3.4829926098    0.8210715792   -0.4811484917
C       -2.4459919978    1.5518680128   -1.0750819520
N       -1.1518435984    1.3746108174   -0.7583381722
C       -0.8401914056    0.4494156916    0.1531959194
C       -1.8198739593   -0.3124428596    0.8132086811
N        0.5150533146    0.3419526180    0.4477377766
C        1.2304611814   -0.7291481508    0.8983978546
O        0.7354545324   -1.7898252998    1.2199198291
C        2.7242686496   -0.5090618472    0.9452245861
C        3.6011546744   -1.2550410851   -0.0367479597
C        3.4983053845    0.2550622608   -0.1200852975
C        2.8848536290    0.8945720286   -1.3634583883
H        3.1071935180   -0.4436920151    1.9589903219
H        4.3541823783    0.8229430890    0.2395476018
H       -4.5108683438    1.0061035257   -0.7738829835
H       -2.6591154085    2.3083501036   -1.8285487999
H       -1.5345951071   -1.0309658284    1.5720298839
H        1.0429972618    1.1336623058    0.1362064129
H        4.5250378584   -1.6870139621    0.3402990102
H        3.1072655282   -1.8472308218   -0.8046293794
H        2.1108684536    0.2600457370   -1.8130124655
H        2.4372614809    1.8675161620   -1.1279600849
H        3.6543670966    1.0612793438   -2.1265940374
C       -4.2637228161   -0.9449753701    1.1711469092
H       -4.8515573440   -0.3136715931    1.8474628806
H       -4.9482741497   -1.3780658128    0.4325557352
H       -3.8465698930   -1.7702430268    1.7601463128
28   
Iteration 17 Energy -0.17786673
C       -3.1727274152   -0.1357220164    0.4929848493
C       -3.4836536773    0.8154023764   -0.4855916731
C       -2.4462244020    1.5419759615   -1.0843908293
N       -1.1519314194    1.3673567805   -0.7662066625
C       -0.8395840073    0.4487884396    0.1517440764
C       -1.8193566882   -0.3085492756    0.8166599516
N        0.5148802360    0.3438326364    0.4498565516
C        1.2275989619   -0.7318109717    0.8933627179
O        0.7304381029   -1.7939676690    1.2063500978
C        2.7219929377   -0.5154328183    0.9433119282
C        3.5987398925   -1.2560764217   -0.0429477629
C        3.4979995567    0.2549275536   -0.1163540618
C        2.8880706886    0.9028230672   -1.3574293683
H        3.1041376873   -0.4571060727    1.9577551801
H        4.3553080120    0.8185488012    0.2465341090
H       -4.5115424764    0.9980698399   -0.7796982518
H       -2.6592995015    2.2931815186   -1.8431341220
H       -1.5335050801   -1.0232685497    1.5789363236
H        1.0432506376    1.1366588665    0.1423776400
H        4.5223513150   -1.6907893052    0.3316602747
H        3.1047281388   -1.8432351080   -0.8146260326
H        2.1096190820    0.2751614452   -1.8089446754
H        2.4471589143    1.8778959931   -1.1182646061
H        3.6582766784    1.0668714987   -2.1204581847
C       -4.2630015208   -0.9402076916    1.1783593406
H       -4.8501049617   -0.3053861061    1.8520039696
H       -4.9481753923   -1.3771420292    0.4425979400
H       -3.8454393807   -1.7625940904    1.7711529562
28   
Iteration 18 Energy -0.17788199
C       -3.1732682108   -0.1344123355    0.4950238266
C       -3.4846625767    0.8116423188   -0.4883494320
C       -2.4470912230    1.5343876883   -1.0916138796
N       -1.1526592683    1.3608900370   -0.7731774229
C       -0.8400353006    0.4467710884    0.1490329975
C       -1.8197727590   -0.3061480968    0.8187169082
N        0.5138538785    0.3423670846    0.4492751916
C        1.2247744582   -0.7375376720    0.8850233309
O        0.7257306195   -1.8021186028    1.1864413493
C        2.7191921813   -0.5226951536    0.9414359185
C        3.6013857117   -1.2539770717   -0.0468120717
C        3.4960116261    0.2573054632   -0.1105358587
C        2.8911746299    0.9083433281   -1.3525186776
H        3.0975022227   -0.4699524068    1.9576035057
H        4.3530429189    0.8189856212    0.2559931705
H       -4.5126441811    0.9931720594   -0.7828290773
H       -2.6602027491    2.2817271551   -1.8541558294
H       -1.5329098280   -1.0177239680    1.5836668200
H        1.0423172950    1.1382744344    0.1501008369
H        4.5268848261   -1.6861339685    0.3260960757
H        3.1109022369   -1.8391272776   -0.8222677143
H        2.1035800809    0.2892302313   -1.7999511538
H        2.4632394684    1.8897194321   -1.1155629075
H        3.6613769330    1.0593899951   -2.1182332165
C       -4.2633380912   -0.9350911265    1.1852012323
H       -4.8476414263   -0.2974743536    1.8586372305
H       -4.9510024352   -1.3729181437    0.4522939242
H       -3.8457362073   -1.7566894136    1.7790667570
28   
Iteration 19 Energy -0.17788596
C       -3.1737555131   -0.1341734994    0.4953937171
C       -3.4845568786    0.8112285148   -0.4888422460
C       -2.4466464299    1.5333020092   -1.0922911015
N       -1.1523247518    1.3598148061   -0.7736443505
C       -0.8405217755    0.4459528399    0.1490950381
C       -1.8204065376   -0.3060731878    0.8194835041
N        0.5130951989    0.3409570939    0.4501938040
C        1.2243570795   -0.7400114107    0.8828068156
O        0.7249023274   -1.8056600704    1.1798844157