28   
Iteration 0 Energy -0.17438226
C       -3.0853707000   -0.1856619500    0.8186066500
C       -3.7747120000   -0.3388248200   -0.3893045800
C       -3.0467368700   -0.5662559200   -1.5472135100
N       -1.7170750400   -0.6509064500   -1.5856669500
C       -1.0674929500   -0.5063642700   -0.4295725500
C       -1.6975834800   -0.2710117900    0.7971388200
N        0.3160596800   -0.6136485200   -0.5707192200
C        1.2968481100   -0.5417967500    0.3833724800
O        1.0872334700   -0.3541166200    1.5704061900
C        2.6821089600   -0.7603427400   -0.1596374800
C        3.1675628700   -0.1373061000   -1.4404115700
C        3.6874594700    0.3555291400   -0.1167389400
C        3.2987576700    1.7175130900    0.3948902200
H        3.0593988300   -1.7520652500    0.0825006500
H        4.6989274900    0.0466171100    0.1394730700
H       -4.8588840000   -0.2816495100   -0.4250190200
H       -3.5540265900   -0.6886025300   -2.5026151000
H       -1.0988240000   -0.1627556300    1.6924443800
H        0.6010174800   -0.7939088200   -1.5240698500
H        3.8171132600   -0.7223319200   -2.0850312000
H        2.4904230300    0.5281023200   -1.9726154000
H        2.3019550700    2.0058172500    0.0438429200
H        3.2746562900    1.7314224000    1.4891271800
H        4.0072716500    2.4784793300    0.0501636800
C       -3.8215937800    0.0660320100    2.1016358700
H       -4.3869773500    1.0036671400    2.0498642100
H       -4.5421038700   -0.7347892100    2.3026241500
H       -3.1354108800    0.1293607700    2.9501220100
28   
Iteration 1 Energy -0.17571409
C       -3.1447773616   -0.1926117456    0.8191737628
C       -3.7814534960   -0.3469694490   -0.4160698833
C       -3.0006159615   -0.5652259566   -1.5427376497
N       -1.6677359362   -0.6390703794   -1.5212378129
C       -1.0552430348   -0.4948747244   -0.3433240935
C       -1.7544481126   -0.2680083323    0.8521044264
N        0.3357221272   -0.5939757432   -0.4448350936
C        1.3630533647   -0.5348806028    0.4623631087
O        1.2558507879   -0.3599364051    1.6629783779
C        2.7083607048   -0.7579101142   -0.1736728736
C        3.1112874320   -0.1228611410   -1.4782784741
C        3.7242343093    0.3518562075   -0.1859345241
C        3.3833336516    1.7136540650    0.3665419629
H        3.0939931091   -1.7542115580    0.0315326741
H        4.7484011803    0.0341599884   -0.0008050834
H       -4.8631911411   -0.2981498360   -0.4984667710
H       -3.4642118145   -0.6886106366   -2.5199907101
H       -1.2087607516   -0.1562031755    1.7783554086
H        0.6108453100   -0.7677973662   -1.4001967501
H        3.7122087277   -0.7055145706   -2.1708772121
H        2.4052558341    0.5529002001   -1.9570947754
H        2.3677622739    2.0158523170    0.0875442668
H        3.4340901428    1.7148915557    1.4603599188
H        4.0743197648    2.4723926066   -0.0170018647
C       -3.9366140153    0.0497350727    2.0734217380
H       -4.5062577806    0.9834231231    2.0009335597
H       -4.6584508130   -0.7574325297    2.2420308044
H       -3.2869566801    0.1155808824    2.9507806907
28   
Iteration 2 Energy -0.17771504
C       -3.1446973420   -0.1882351501    0.8256368624
C       -3.7957032226   -0.3509399900   -0.4010853916
C       -3.0484095495   -0.5855599249   -1.5571008109
N       -1.7091871187   -0.6648762554   -1.5475630575
C       -1.0489065616   -0.5171353833   -0.3944317309
C       -1.7483164150   -0.2761797894    0.8034929047
N        0.3380501496   -0.6215203409   -0.5125486880
C        1.3444706889   -0.5498401614    0.4122061028
O        1.1683796349   -0.3658803549    1.6002258932
C        2.7177086697   -0.7701431008   -0.1725329043
C        3.1405248252   -0.1179564247   -1.4696792377
C        3.7287426819    0.3554595177   -0.1572627302
C        3.3821452505    1.7282147711    0.3957745449
H        3.1123491377   -1.7598189684    0.0375621501
H        4.7528449769    0.0567403288    0.0572527273
H       -4.8773783260   -0.2965512463   -0.4635422877
H       -3.5355310140   -0.7142428538   -2.5222799126
H       -1.2060777577   -0.1557177172    1.7302135547
H        0.6136799030   -0.8028984007   -1.4598858420
H        3.7688090019   -0.6933977061   -2.1454315098
H        2.4410650841    0.5509319372   -1.9669604660
H        2.3740343234    2.0454242333    0.1027125063
H        3.4189255568    1.7246021626    1.4917353679
H        4.0868133807    2.4834342095    0.0287346633
C       -3.9139503918    0.0706342774    2.1029418059
H       -4.4773432125    1.0084623779    2.0343699602
H       -4.6342993083   -0.7332969660    2.2937420699
H       -3.2487411604    0.1404888015    2.9713006525
28   
Iteration 3 Energy -0.17786470
C       -3.1046006865   -0.1827310721    0.8038403681
C       -3.7926974205   -0.3517079529   -0.4032600704
C       -3.0545294709   -0.6125572227   -1.5670290059
N       -1.7123843283   -0.7053896046   -1.5639822630
C       -1.0507620882   -0.5460248217   -0.4135267631
C       -1.7027283159   -0.2795092440    0.8076438274
N        0.3319265066   -0.6608865488   -0.5350578959
C        1.3215663811   -0.5733776283    0.4018251793
O        1.1438245827   -0.3823586509    1.5864331907
C        2.7042269102   -0.7844907263   -0.1707341004
C        3.0987307777   -0.0951704734   -1.4658904377
C        3.7042578862    0.3585346679   -0.1504335946
C        3.3653457709    1.7300345011    0.4330311505
H        3.1165851349   -1.7699215423    0.0181734120
H        4.7374229714    0.0828408233    0.0508898683
H       -4.8737457317   -0.2843404050   -0.4490739884
H       -3.5513697158   -0.7500157608   -2.5260852874
H       -1.1643186519   -0.1485224657    1.7360760128
H        0.6118197996   -0.8532442222   -1.4746695546
H        3.7368221686   -0.6470770676   -2.1529192418
H        2.3863351466    0.5709093096   -1.9480362740
H        2.3523911910    2.0561102403    0.1653903613
H        3.4295137324    1.7080539994    1.5284290770
H        4.0659714956    2.4905221397    0.0679996728
C       -3.8728625371    0.1021355515    2.0860158905
H       -4.4243641919    1.0461931183    2.0070063270
H       -4.5966313963   -0.6953046096    2.2913531602
H       -3.2057440542    0.1774976587    2.9541880237
28   
Iteration 4 Energy -0.17833281
C       -3.1206331087   -0.1795691375    0.8135935894
C       -3.7946028878   -0.3463342434   -0.4016761738
C       -3.0474844571   -0.6048623532   -1.5578660736
N       -1.7073676972   -0.7033084317   -1.5713649844
C       -1.0515929962   -0.5480508448   -0.4180179413
C       -1.7212360829   -0.2838505571    0.7919794170
N        0.3325253329   -0.6632506429   -0.5270795259
C        1.3293251734   -0.5801159656    0.4039547465
O        1.1547415922   -0.3914122196    1.5900845822
C        2.7098622062   -0.7817770694   -0.1749972638
C        3.1186955989   -0.0973560144   -1.4683541548
C        3.7065375646    0.3611745721   -0.1508381888
C        3.3547844227    1.7284214606    0.4263961574
H        3.1214832170   -1.7677645205    0.0164921654
H        4.7390685221    0.0865625511    0.0551966291
H       -4.8755883371   -0.2783697057   -0.4575748875
H       -3.5451726705   -0.7385082982   -2.5169661419
H       -1.1712717701   -0.1585265438    1.7151824827
H        0.6147750236   -0.8527016289   -1.4686443623
H        3.7652424790   -0.6478942150   -2.1478875399
H        2.4109587190    0.5678085114   -1.9587774890
H        2.3415621168    2.0428930709    0.1478212665
H        3.4090060731    1.7096507989    1.5217674213
H        4.0526150277    2.4932768305    0.0658753620
C       -3.8810898352    0.1033506210    2.0980148739
H       -4.4300967972    1.0493316818    2.0250810272
H       -4.6063651079   -0.6921952393    2.3048443407
H       -3.2086792815    0.1735795242    2.9613576619
28   
Iteration 5 Energy -0.17832276
C       -3.1199711012   -0.1788694251    0.8167664108
C       -3.7828160658   -0.3454235035   -0.4036808245
C       -3.0457666034   -0.6031118101   -1.5651977476
N       -1.7055547380   -0.6990397702   -1.5585327179
C       -1.0512656636   -0.5459116449   -0.4036641281
C       -1.7218227014   -0.2824848591    0.8056812347
N        0.3330724557   -0.6633036612   -0.5168157222
C        1.3355165162   -0.5818474162    0.4092705587
O        1.1660741746   -0.3948431983    1.5965915312
C        2.7123246579   -0.7813617301   -0.1776277905
C        3.1185414044   -0.0972798275   -1.4714491435
C        3.7074408395    0.3614599025   -0.1560628472
C        3.3528805584    1.7257823744    0.4222775027
H        3.1231982885   -1.7686135681    0.0104540618
H        4.7412654639    0.0872670991    0.0439986361
H       -4.8639526746   -0.2766464263   -0.4592921268
H       -3.5399220774   -0.7355662461   -2.5262732562
H       -1.1737923118   -0.1587035857    1.7300093056
H        0.6118455916   -0.8504836959   -1.4608142365
H        3.7649376946   -0.6449941486   -2.1531561781
H        2.4092235752    0.5681958250   -1.9592395710
H        2.3373557738    2.0346042443    0.1464091732
H        3.4103251843    1.7073372119    1.5172449590
H        4.0462842283    2.4935124331    0.0596177959
C       -3.8892767448    0.1027180991    2.0946573612
H       -4.4380408927    1.0485894234    2.0186943964
H       -4.6157870802   -0.6930667313    2.2959216143
H       -3.2223157518    0.1722866077    2.9618087838
28   
Iteration 6 Energy -0.17837785
C       -3.1192206176   -0.1789209138    0.8141502230
C       -3.7890021900   -0.3447573267   -0.4026971668
C       -3.0479893191   -0.6029170701   -1.5618543737
N       -1.7076992869   -0.7000125439   -1.5606974058
C       -1.0499551528   -0.5471043223   -0.4078791362
C       -1.7208381715   -0.2830858030    0.8012152649
N        0.3340956511   -0.6648916951   -0.5220746152
C        1.3337186681   -0.5824064047    0.4067014644
O        1.1613963824   -0.3948278381    1.5934227773
C        2.7120382509   -0.7818222597   -0.1767450237
C        3.1203417773   -0.0977464518   -1.4699714912
C        3.7065512730    0.3617257614   -0.1533284117
C        3.3503486253    1.7263881616    0.4239781390
H        3.1230736472   -1.7687433117    0.0123704755
H        4.7401680975    0.0884400961    0.0490324079
H       -4.8701339268   -0.2756462763   -0.4571763782
H       -3.5425769281   -0.7356291027   -2.5226761654
H       -1.1727172992   -0.1590151000    1.7254377581
H        0.6137576058   -0.8524139832   -1.4655584746
H        3.7686070985   -0.6452315100   -2.1501413228
H        2.4116426169    0.5671490990   -1.9594308866
H        2.3352630101    2.0350380864    0.1461694092
H        3.4058138439    1.7082672906    1.5191041406
H        4.0442677064    2.4942066706    0.0624335117
C       -3.8840749877    0.1034785431    2.0948074958
H       -4.4323304632    1.0497806085    2.0205560579
H       -4.6104310297   -0.6917923366    2.2986822847
H       -3.2141128899    0.1726919028    2.9597664861
28   
Iteration 7 Energy -0.17838700
C       -3.1173020469   -0.1780064853    0.8129861847
C       -3.7884863013   -0.3446741910   -0.4032964292
C       -3.0455726017   -0.6057453934   -1.5611234356
N       -1.7053815466   -0.7056995609   -1.5655952475
C       -1.0496779618   -0.5513510490   -0.4120612551
C       -1.7185196134   -0.2845152928    0.7976656603
N        0.3342382115   -0.6701592573   -0.5233410712
C        1.3322430626   -0.5844326999    0.4064524484
O        1.1583327183   -0.3957433147    1.5926369646
C        2.7115351760   -0.7835822884   -0.1751788798
C        3.1131823945   -0.0950612879   -1.4685368283
C        3.7042640856    0.3621586799   -0.1527792558
C        3.3497923721    1.7265463924    0.4280960256
H        3.1240487564   -1.7705193568    0.0098866141
H        4.7395356159    0.0918481035    0.0450548245
H       -4.8694096043   -0.2742578972   -0.4586400674
H       -3.5416792498   -0.7391211469   -2.5210745766
H       -1.1698658103   -0.1597600180    1.7215483482
H        0.6154927956   -0.8585031204   -1.4658362704
H        3.7618680498   -0.6385466623   -2.1516127687
H        2.4015391342    0.5692864015   -1.9544179455
H        2.3333068978    2.0359705704    0.1560638922
H        3.4114307657    1.7069955414    1.5229678593
H        4.0419251929    2.4949969456    0.0643578780
C       -3.8809001559    0.1074043106    2.0944984594
H       -4.4274638303    1.0546268384    2.0194709112
H       -4.6080274127   -0.6867276459    2.3001508128
H       -3.2104471236    0.1767749088    2.9592542286
28   
Iteration 8 Energy -0.17839358
C       -3.1178611774   -0.1781379247    0.8123558848
C       -3.7900441420   -0.3432989984   -0.4034101523
C       -3.0466040815   -0.6042407305   -1.5607472374
N       -1.7064463578   -0.7049504983   -1.5629087020
C       -1.0490630602   -0.5522437442   -0.4100250086
C       -1.7193432878   -0.2855582825    0.7989418821
N        0.3347977231   -0.6724077618   -0.5225625947
C        1.3331846294   -0.5860406399    0.4069929517
O        1.1596045286   -0.3971990278    1.5932145541
C        2.7125231689   -0.7835764698   -0.1750935303
C        3.1150487259   -0.0955029497   -1.4685521948
C        3.7045134741    0.3627472724   -0.1528178745
C        3.3490330003    1.7271460088    0.4269798617
H        3.1248467479   -1.7707846760    0.0090985796
H        4.7401911140    0.0935243233    0.0443762585
H       -4.8709333570   -0.2718921074   -0.4586058889
H       -3.5416277114   -0.7367535114   -2.5213760657
H       -1.1719922297   -0.1617461402    1.7236560874
H        0.6155071918   -0.8599525905   -1.4654988067
H        3.7657299961   -0.6378129994   -2.1506373338
H        2.4036260917    0.5683257842   -1.9554908432
H        2.3321232099    2.0352905404    0.1551556210
H        3.4113464643    1.7086662914    1.5218026456
H        4.0403004004    2.4959126005    0.0622950157
C       -3.8813869527    0.1070961040    2.0937583658
H       -4.4269420171    1.0549483429    2.0193685174
H       -4.6092556241   -0.6865055121    2.2988061249
H       -3.2108745067    0.1751493396    2.9585209678
28   
Iteration 9 Energy -0.17839502
C       -3.1177178533   -0.1781710787    0.8126792107
C       -3.7892546635   -0.3418631676   -0.4036364020
C       -3.0461388005   -0.6025130078   -1.5612398091
N       -1.7060607982   -0.7042634822   -1.5628117704
C       -1.0488885470   -0.5530154946   -0.4096036972
C       -1.7193062159   -0.2867845988    0.7993835828
N        0.3349059299   -0.6742777840   -0.5218352145
C        1.3332045281   -0.5868648534    0.4077414397
O        1.1599184000   -0.3970215216    1.5938501270
C        2.7126542270   -0.7837104881   -0.1743485888
C        3.1153408544   -0.0963601491   -1.4682331119
C        3.7040664039    0.3631102123   -0.1526924698
C        3.3479174118    1.7278316091    0.4258733797
H        3.1247994284   -1.7711011874    0.0092568261
H        4.7401042457    0.0949216453    0.0440189933
H       -4.8700706288   -0.2695268748   -0.4590699564
H       -3.5410732672   -0.7338410122   -2.5220774083
H       -1.1720028975   -0.1643382752    1.7243044329
H        0.6157579710   -0.8614704816   -1.4648006762
H        3.7673564655   -0.6379632236   -2.1496075980
H        2.4038647490    0.5668384563   -1.9559590034
H        2.3304784512    2.0346990177    0.1545877638
H        3.4112696061    1.7106512948    1.5206546596
H        4.0381818373    2.4968165845    0.0597492679
C       -3.8815499745    0.1066151420    2.0940026524
H       -4.4261467900    1.0550684984    2.0202528858
H       -4.6102380206   -0.6864994757    2.2980234380
H       -3.2113701173    0.1732357201    2.9591341429
28   
Iteration 10 Energy -0.17839641
C       -3.1178899980   -0.1786861501    0.8130706795
C       -3.7880070924   -0.3382132610   -0.4045861366
C       -3.0443086128   -0.5975383683   -1.5620711753
N       -1.7044515065   -0.7017478930   -1.5620810979
C       -1.0485115265   -0.5542860198   -0.4076795643
C       -1.7197008570   -0.2898822383    0.8012582575
N        0.3351719914   -0.6780787930   -0.5185613856
C        1.3341477228   -0.5875206090    0.4100046620
O        1.1599896672   -0.3943855554    1.5954762679
C        2.7137419628   -0.7840804799   -0.1718036521
C        3.1150032578   -0.0988019970   -1.4672870971
C        3.7038530041    0.3638079541   -0.1529993769
C        3.3467993160    1.7295737702    0.4223511678
H        3.1253383482   -1.7719523408    0.0104625157
H        4.7408445731    0.0979447503    0.0418290492
H       -4.8686243735   -0.2637315383   -0.4611076819
H       -3.5383776394   -0.7256873666   -2.5237829227
H       -1.1731608042   -0.1711340883    1.7271107851
H        0.6161274710   -0.8651411295   -1.4615392532
H        3.7690425230   -0.6390759597   -2.1477783558
H        2.4026918356    0.5627714922   -1.9560081173
H        2.3277372476    2.0332574660    0.1536005739
H        3.4140385900    1.7160849889    1.5169430513
H        4.0341148446    2.4988833044    0.0513943301
C       -3.8829086715    0.1043071294    2.0940473763
H       -4.4252304046    1.0542047029    2.0221398434
H       -4.6136504120   -0.6877281755    2.2948890979
H       -3.2138185569    0.1670383695    2.9603051955
28   
Iteration 11 Energy -0.17839746
C       -3.1177660558   -0.1795591447    0.8133343172
C       -3.7868056075   -0.3347824361   -0.4054773395
C       -3.0425218127   -0.5920848725   -1.5630397423
N       -1.7028232210   -0.6982507895   -1.5623282283
C       -1.0477015634   -0.5545622827   -0.4069793993
C       -1.7197256426   -0.2927711035    0.8020816609
N        0.3358849761   -0.6803339641   -0.5169241180
C        1.3337747107   -0.5863715496    0.4124764912
O        1.1603994831   -0.3895439169    1.5974522340
C        2.7135300047   -0.7841357043   -0.1684747403
C        3.1138113079   -0.1019251088   -1.4658365963
C        3.7031987001    0.3641451457   -0.1529593756
C        3.3461107326    1.7315475203    0.4184760082
H        3.1244614442   -1.7722086011    0.0141872306
H        4.7406069095    0.0995053781    0.0413072512
H       -4.8672604651   -0.2586172335   -0.4628200059
H       -3.5360184551   -0.7169750395   -2.5254739113
H       -1.1738015106   -0.1777669091    1.7287640744
H        0.6176257167   -0.8682645051   -1.4594822474
H        3.7686012549   -0.6426683132   -2.1452383954
H        2.4010247088    0.5581675186   -1.9558677760
H        2.3259619963    2.0331423241    0.1514947120
H        3.4163542530    1.7220305321    1.5129205706
H        4.0314944465    2.5003240501    0.0428668387
C       -3.8834677904    0.1008777454    2.0944614930
H       -4.4240139924    1.0519656474    2.0249538800
H       -4.6158483577   -0.6904294436    2.2921816248
H       -3.2150842922    0.1597469704    2.9615404954
28   
Iteration 12 Energy -0.17839948
C       -3.1184737197   -0.1812483437    0.8138923698
C       -3.7865545255   -0.3307827520   -0.4061826108
C       -3.0412009258   -0.5844499925   -1.5639090864
N       -1.7016184323   -0.6922091134   -1.5625499460
C       -1.0476270936   -0.5533608106   -0.4059704377
C       -1.7205001785   -0.2959876059    0.8035893406
N        0.3358732966   -0.6807517598   -0.5147781592
C        1.3332804295   -0.5836109253    0.4147806857
O        1.1594886097   -0.3821479261    1.5989067610
C        2.7133517348   -0.7836636901   -0.1647455425
C        3.1148323310   -0.1066958813   -1.4644912520
C        3.7035137396    0.3643356280   -0.1529999104
C        3.3468098840    1.7344497351    0.4123460364
H        3.1234909757   -1.7714733116    0.0210342227
H        4.7406132486    0.0999555980    0.0432459435
H       -4.8668541409   -0.2531668079   -0.4643692865
H       -3.5339139585   -0.7051002605   -2.5272855656
H       -1.1754748721   -0.1857602523    1.7313868609
H        0.6180979729   -0.8704595980   -1.4567952120
H        3.7699579438   -0.6503497985   -2.1412511028
H        2.4026802003    0.5517236656   -1.9576898953
H        2.3263109960    2.0347598351    0.1452315247
H        3.4183055255    1.7301266264    1.5067494373
H        4.0315907886    2.5015321891    0.0321942387
C       -3.8851447152    0.0948084198    2.0954320954
H       -4.4241948170    1.0469943245    2.0294183782
H       -4.6189963488   -0.6961903594    2.2888918392
H       -3.2176420881    0.1489250283    2.9635152960
28   
Iteration 13 Energy -0.17841484
C       -3.1236286244   -0.1923917313    0.8173140951
C       -3.7856598695   -0.3064643366   -0.4100162024
C       -3.0331399161   -0.5361181305   -1.5684123393
N       -1.6942022606   -0.6523631747   -1.5630799085
C       -1.0473687873   -0.5435064296   -0.3992902115
C       -1.7260177714   -0.3151479763    0.8129785318
N        0.3356270703   -0.6798227843   -0.5012601230
C        1.3304536418   -0.5635347576    0.4286512805
O        1.1537405772   -0.3327437477    1.6069212590
C        2.7121892358   -0.7798547063   -0.1415926926
C        3.1217167192   -0.1370324254   -1.4560399451
C        3.7065343035    0.3650915795   -0.1539054246
C        3.3530651658    1.7518162341    0.3728221824
H        3.1177385485   -1.7649644785    0.0669117796
H        4.7408611396    0.1009748716    0.0567278521
H       -4.8650378636   -0.2208844439   -0.4732409654
H       -3.5206183947   -0.6304126471   -2.5373778397
H       -1.1868613298   -0.2346336822    1.7472872394
H        0.6204633655   -0.8821939929   -1.4396259537
H        3.7766380431   -0.7013419909   -2.1159247000
H        2.4139399822    0.5109152604   -1.9690307750
H        2.3312694922    2.0454823151    0.1031652689
H        3.4303031721    1.7795599485    1.4665302879
H        4.0357050124    2.5069811288   -0.0341283161
C       -3.8966672537    0.0548667251    2.1011224600
H       -4.4276660835    1.0128491396    2.0574479169
H       -4.6386133381   -0.7346928928    2.2677530590
H       -3.2347622078    0.0797686841    2.9748893984
28   
Iteration 14 Energy -0.17841128
C       -3.1256832590   -0.1928952670    0.8181723353
C       -3.7818178437   -0.3043071433   -0.4123284741
C       -3.0293525078   -0.5318862687   -1.5709462808
N       -1.6904477818   -0.6483627775   -1.5581599104
C       -1.0455220889   -0.5423518329   -0.3929461062
C       -1.7284720829   -0.3164943744    0.8172897867
N        0.3376931010   -0.6799910566   -0.4924106719
C        1.3357621148   -0.5606118272    0.4338044256
O        1.1617231755   -0.3253716951    1.6116195123
C        2.7151995318   -0.7803055720   -0.1399011345
C        3.1163555447   -0.1383387556   -1.4572471696
C        3.7082160884    0.3650140673   -0.1590107694
C        3.3553188974    1.7509254362    0.3690760343
H        3.1224748970   -1.7644972637    0.0698638737
H        4.7440452770    0.1023028998    0.0459601805
H       -4.8610325667   -0.2179544785   -0.4779211623
H       -3.5140198406   -0.6238973147   -2.5415381367
H       -1.1918413487   -0.2388154603    1.7532637212
H        0.6217554242   -0.8851893401   -1.4305711902
H        3.7677699273   -0.7023353657   -2.1208053921
H        2.4046638532    0.5085674849   -1.9661081525
H        2.3314487668    2.0415873938    0.1041990482
H        3.4383248931    1.7793272214    1.4622944885
H        4.0344314474    2.5073419510   -0.0413976297
C       -3.9032382952    0.0518564991    2.0995579522
H       -4.4334104383    1.0103143521    2.0562893497
H       -4.6459999920   -0.7378139125    2.2619271474
H       -3.2443431332    0.0743839441    2.9755715415
28   
Iteration 15 Energy -0.17842063
C       -3.1237462085   -0.1926684207    0.8179809734
C       -3.7821395065   -0.3037857228   -0.4113754712
C       -3.0311313058   -0.5317157341   -1.5708805135
N       -1.6922743922   -0.6488014300   -1.5604443585
C       -1.0457350522   -0.5430026049   -0.3961576635
C       -1.7265978281   -0.3168441144    0.8150791436
N        0.3372143219   -0.6811344123   -0.4970078172
C        1.3334484304   -0.5610749871    0.4309927780
O        1.1558508165   -0.3253630602    1.6082027485
C        2.7143534843   -0.7804352545   -0.1393035959
C        3.1184926376   -0.1388974423   -1.4559618682
C        3.7069685472    0.3652655267   -0.1565488203
C        3.3522559059    1.7512570647    0.3700636226
H        3.1215159884   -1.7643628558    0.0719243955
H        4.7424016661    0.1030442897    0.0510366211
H       -4.8614162236   -0.2169839933   -0.4753671820
H       -3.5172550933   -0.6235581620   -2.5407595128
H       -1.1882818884   -0.2394001553    1.7501514009
H        0.6216834750   -0.8865991524   -1.4350061344
H        3.7717506880   -0.7029345111   -2.1176671436
H        2.4077933183    0.5075011063   -1.9668542906
H        2.3289183100    2.0413899827    0.1025689796
H        3.4326069137    1.7801805634    1.4634639479
H        4.0320689516    2.5077585780   -0.0390890952
C       -3.8991059490    0.0524422671    2.1006122568
H       -4.4289216554    1.0111350715    2.0581931340
H       -4.6419432648   -0.7369033178    2.2642065050
H       -3.2387733260    0.0746924249    2.9755441769
28   
Iteration 16 Energy -0.17840526
C       -3.1245751838   -0.1940914434    0.8158922938
C       -3.7883100926   -0.3011258366   -0.4111685969
C       -3.0308554361   -0.5269408065   -1.5669000963
N       -1.6922457042   -0.6456143289   -1.5620493466
C       -1.0459648657   -0.5426338071   -0.3975797015
C       -1.7272927138   -0.3189848400    0.8137816291
N        0.3368698548   -0.6814014966   -0.4977350146
C        1.3310311982   -0.5601805998    0.4322949476
O        1.1559746894   -0.3231136871    1.6096421350
C        2.7124124831   -0.7793218493   -0.1374232311
C        3.1212556562   -0.1419945905   -1.4548987198
C        3.7063095049    0.3657106455   -0.1555725890
C        3.3524013262    1.7537867092    0.3664796688
H        3.1189477253   -1.7627213368    0.0773192568
H        4.7409966107    0.1028978709    0.0549578098
H       -4.8674795992   -0.2136188440   -0.4757651819
H       -3.5161407055   -0.6164777692   -2.5374141630
H       -1.1896900694   -0.2441017420    1.7494932663
H        0.6225719033   -0.8869844964   -1.4353184923
H        3.7760424679   -0.7087389140   -2.1127804459
H        2.4128946367    0.5035482550   -1.9701291519
H        2.3303051014    2.0454974053    0.0959381981
H        3.4302640944    1.7854813184    1.4599965279
H        4.0345712099    2.5079561492   -0.0430629600
C       -3.8974761657    0.0484391223    2.1004889823
H       -4.4265248423    1.0076962615    2.0614043542
H       -4.6407093504   -0.7406798011    2.2633788225
H       -3.2355819744    0.0679139934    2.9743270581
28   
Iteration 17 Energy -0.17841893
C       -3.1239628910   -0.1933449382    0.8163243223
C       -3.7862055243   -0.3027224754   -0.4112598661
C       -3.0310751045   -0.5299153013   -1.5682187057
N       -1.6923694106   -0.6478336848   -1.5616794195
C       -1.0457641435   -0.5430582671   -0.3974854562
C       -1.7267077178   -0.3177738693    0.8138227331
N        0.3371307495   -0.6814457559   -0.4981111727
C        1.3317603790   -0.5605966547    0.4315123675
O        1.1558656754   -0.3243252838    1.6088858168
C        2.7130432471   -0.7798545978   -0.1382362683
C        3.1194020156   -0.1400358932   -1.4552073560
C        3.7064277499    0.3655021884   -0.1558948822
C        3.3523607164    1.7524112504    0.3689705562
H        3.1197891280   -1.7636007832    0.0745494910
H        4.7415047795    0.1028058101    0.0528603353
H       -4.8654399579   -0.2156707728   -0.4754781943
H       -3.5168019862   -0.6209677247   -2.5383707074
H       -1.1886300283   -0.2412321783    1.7491144218
H        0.6224809008   -0.8870153254   -1.4358163295
H        3.7733219731   -0.7052746047   -2.1152370488
H        2.4097882637    0.5060748419   -1.9679897438
H        2.3295900454    2.0435190922    0.1003506146
H        3.4317887396    1.7823774611    1.4624174521
H        4.0332986814    2.5078205937   -0.0403328980
C       -3.8974453814    0.0508640024    2.1002429101
H       -4.4268989352    1.0098275055    2.0594686834
H       -4.6403747937   -0.7383362382    2.2641179891
H       -3.2358754095    0.0720031453    2.9742775906
28   
Iteration 18 Energy -0.17842594
C       -3.1235879233   -0.1933757004    0.8174587560
C       -3.7839386534   -0.3022641501   -0.4111338138
C       -3.0311477496   -0.5290205208   -1.5696621202
N       -1.6924482770   -0.6470461579   -1.5618060595
C       -1.0462503139   -0.5428886531   -0.3972736783
C       -1.7264314120   -0.3181400910    0.8145891773
N        0.3366563832   -0.6816258045   -0.4981480840
C        1.3316198253   -0.5604511118    0.4311411231
O        1.1543631956   -0.3235483261    1.6081838385
C        2.7131015567   -0.7798100861   -0.1380310516
C        3.1201162211   -0.1407011421   -1.4551647362
C        3.7063473393    0.3655901453   -0.1558498398
C        3.3518836311    1.7526494706    0.3681988826
H        3.1199469203   -1.7633228047    0.0756791485
H        4.7413635886    0.1031137707    0.0534880626
H       -4.8631714046   -0.2149150896   -0.4750776824
H       -3.5173551850   -0.6194043981   -2.5396355594
H       -1.1878318866   -0.2423496626    1.7496309656
H        0.6217833610   -0.8874271880   -1.4358948139
H        3.7744340611   -0.7062206640   -2.1145522168
H        2.4107199397    0.5050730347   -1.9686707321
H        2.3292219238    2.0434689090    0.0988683010
H        3.4307742963    1.7831392712    1.4616639863
H        4.0329762866    2.5079472014   -0.0410480524
C       -3.8979228919    0.0503085594    2.1009504181
H       -4.4272028174    1.0093731908    2.0602864907
H       -4.6410436919   -0.7388923064    2.2639497901
H       -3.2369745588    0.0709418457    2.9754567434
28   
Iteration 19 Energy -0.17842781
C       -3.1239619113   -0.1936485593    0.8177537925
C       -3.7837316723   -0.3010089773   -0.4112254915
C       -3.0310901439   -0.5268818770   -1.5699829371
N       -1.6924185529   -0.6453947839   -1.5613500504
C       -1.0458581240   -0.5426884452   -0.3968483405
C       -1.7269303670   -0.3190278541    0.8147227856
N        0.3370450241   -0.6820729469   -0.4976186886
C        1.3321572793   -0.5598433168    0.4314187704
O        1.1540118203   -0.3214641404    1.6080311411