28   
Iteration 0 Energy -0.16792282
C       -3.1062180100   -0.5258055700    0.7144970800
C       -3.6236456200    0.3033728400   -0.2867685100
C       -2.7408409500    1.0353674500   -1.0656947400
N       -1.4163294900    0.9990615600   -0.9230690600
C       -0.9296575400    0.2051717200    0.0332725900
C       -1.7262200700   -0.5762252500    0.8777374800
N        0.4633130700    0.2358480800    0.0936348200
C        1.3049323200   -0.4230991100    0.9505182200
O        0.9159213000   -1.1376020100    1.8607553800
C        2.7746440200   -0.2485379600    0.7200919100
C        3.4574957100   -0.8968723100   -0.4673828300
C        3.5190842800    0.5869883800   -0.3021906000
C        2.9106566700    1.5200060100   -1.3234625700
H        3.2944010400   -0.3828621300    1.6640510300
H        4.4548067000    0.9669809800    0.1044301500
H       -4.6944920000    0.3765188600   -0.4536479200
H       -3.1119945900    1.6904365800   -1.8520855200
H       -1.2573493000   -1.1925273100    1.6335925100
H        0.8576623100    0.8847643400   -0.5711846900
H        4.3341594400   -1.5093561300   -0.2795924000
H        2.8076502200   -1.2728348100   -1.2547926500
H        2.1628184800    1.0278771300   -1.9553299200
H        2.4559050100    2.4048841100   -0.8619846700
H        3.6924044600    1.8754344300   -2.0030533700
C       -4.0158720700   -1.3315648300    1.5944586800
H       -4.6476080100   -0.6756343700    2.2045951100
H       -4.6857235400   -1.9601767300    0.9970835900
H       -3.4499003900   -1.9794136700    2.2691175300
28   
Iteration 1 Energy -0.17040885
C       -3.1227505857   -0.5152645863    0.7026065188
C       -3.5858348920    0.3250979561   -0.3146726575
C       -2.6573086517    1.0323806604   -1.0648039233
N       -1.3382025198    0.9595225906   -0.8768815973
C       -0.8927283578    0.1567594856    0.0936440672
C       -1.7483740951   -0.5997306732    0.9084799046
N        0.5016613505    0.1613364629    0.1874009644
C        1.3856855328   -0.4726679327    1.0223785121
O        1.0808421866   -1.1970264864    1.9541382862
C        2.8371382234   -0.2447705806    0.7233469488
C        3.4825563505   -0.8746041454   -0.4944602658
C        3.4944551907    0.6142387697   -0.3381543816
C        2.7966154258    1.5170812621   -1.3310747358
H        3.4086924270   -0.3530585996    1.6404456514
H        4.4335777837    1.0348889372    0.0172828953
H       -4.6480483443    0.4265661621   -0.5167281984
H       -2.9839856369    1.6961472875   -1.8635530793
H       -1.3322136059   -1.2298236932    1.6816806203
H        0.8926305020    0.8081599941   -0.4794299644
H        4.3907193658   -1.4523587260   -0.3496598102
H        2.8082711427   -1.2796976991   -1.2460669548
H        2.0372299509    0.9912818745   -1.9208763910
H        2.3313723274    2.3852312519   -0.8487434637
H        3.5269811758    1.8999976089   -2.0519813240
C       -4.0815655740   -1.2971214096    1.5547403025
H       -4.7151492170   -0.6242185179    2.1441290758
H       -4.7477865283   -1.9093018332    0.9364915313
H       -3.5544774801   -1.9588451410    2.2479180870
28   
Iteration 2 Energy -0.17108653
C       -3.0889341520   -0.4971854201    0.6895898422
C       -3.5300182442    0.3441747940   -0.3367042233
C       -2.6057536409    1.0521278184   -1.1084286703
N       -1.2822134347    0.9609335185   -0.9078339404
C       -0.8177233455    0.1685386628    0.0641356089
C       -1.7033272935   -0.5687518178    0.8728190646
N        0.5728288055    0.1532090636    0.1731940680
C        1.4191985249   -0.4955429796    1.0287413871
O        1.0296288223   -1.2079295507    1.9324687673
C        2.8905924992   -0.2830084397    0.7657317859
C        3.4849069554   -0.8877138908   -0.4889266297
C        3.4477802707    0.6147224998   -0.3239567721
C        2.6348064621    1.4854531580   -1.2710822218
H        3.4991576801   -0.3768297980    1.6609360363
H        4.3814878531    1.0965909863   -0.0397117538
H       -4.5898918642    0.4534430317   -0.5403987875
H       -2.9326808362    1.7112350413   -1.9110042594
H       -1.3154531927   -1.2046898744    1.6558853155
H        0.9970907658    0.7751922428   -0.4878670490
H        4.4207270734   -1.4340803958   -0.3976249242
H        2.7867244824   -1.3088101941   -1.2093815814
H        1.8605899936    0.9173464711   -1.8006880633
H        2.1622440459    2.3211943308   -0.7408596150
H        3.2877840283    1.9124624524   -2.0415631631
C       -4.0589719025   -1.2755457801    1.5525685069
H       -4.6868765989   -0.5959619122    2.1404062215
H       -4.7250214891   -1.8897557287    0.9355120913
H       -3.5386785082   -1.9406182125    2.2516399765
28   
Iteration 3 Energy -0.17325586
C       -3.1097560617   -0.5049813292    0.6992131436
C       -3.5688590258    0.3341469220   -0.3213856305
C       -2.6505365152    1.0471414117   -1.0980781977
N       -1.3242364830    0.9618444094   -0.9068093334
C       -0.8510964234    0.1699678204    0.0611605558
C       -1.7222638325   -0.5754477844    0.8787389998
N        0.5397663012    0.1614353273    0.1600027480
C        1.3992189070   -0.4809862764    1.0048933091
O        0.9993241273   -1.1912779859    1.9046278179
C        2.8816459533   -0.2787739303    0.7581458719
C        3.4967526526   -0.8891815957   -0.4853667171
C        3.4855963023    0.6135231680   -0.3212594926
C        2.7228684416    1.5053226683   -1.2947631516
H        3.4702596913   -0.3819747908    1.6654251081
H        4.4202972631    1.0777506771   -0.0121152438
H       -4.6308282773    0.4377257740   -0.5162794773
H       -2.9853777668    1.7059775782   -1.8976103053
H       -1.3285043078   -1.2115175287    1.6588975471
H        0.9534062809    0.7852495411   -0.5027840025
H        4.4234650249   -1.4459606706   -0.3674455036
H        2.8133491630   -1.3044830523   -1.2232730035
H        1.9534230786    0.9586221935   -1.8527264568
H        2.2538950047    2.3516175230   -0.7780686135
H        3.4111344425    1.9173190436   -2.0425283565
C       -4.0717029745   -1.2895878408    1.5682135591
H       -4.6984731563   -0.6135794774    2.1613491797
H       -4.7387693270   -1.9060205596    0.9544397053
H       -3.5439947387   -1.9536711558    2.2629829591
28   
Iteration 4 Energy -0.17282006
C       -3.0904510437   -0.4930074599    0.6988265158
C       -3.5825898276    0.3331589217   -0.3183083291
C       -2.6586054011    1.0283610634   -1.1065311503
N       -1.3289697054    0.9446219416   -0.9373549566
C       -0.8689895015    0.1561475823    0.0380712122
C       -1.7042676645   -0.5906609830    0.8899402481
N        0.5215087326    0.1415464782    0.1242759282
C        1.3490190363   -0.5158363401    0.9882486536
O        1.0218293565   -1.2389697131    1.9057534682
C        2.8340238912   -0.2864565672    0.7526463139
C        3.4731056787   -0.8772624889   -0.4918168053
C        3.4749593822    0.6205163465   -0.3016775943
C        2.7503321163    1.5328633825   -1.2897418822
H        3.4063931007   -0.4010662285    1.6684000425
H        4.4076698595    1.0749972113    0.0272079767
H       -4.6471900752    0.4376003467   -0.4978991232
H       -2.9978036056    1.6810997036   -1.9091968143
H       -1.3020864889   -1.2225112511    1.6705355766
H        0.9496868155    0.7428087094   -0.5491402062
H        4.4074827237   -1.4167108255   -0.3564573244
H        2.8153692791   -1.3125455128   -1.2414984969
H        1.9923772738    1.0023094910   -1.8777590453
H        2.2735868855    2.3760279060   -0.7749008093
H        3.4652988172    1.9486373116   -2.0097746217
C       -4.0507201802   -1.2668569954    1.5825658427
H       -4.6674472174   -0.5837733862    2.1780669594
H       -4.7243940086   -1.8860747455    0.9789817629
H       -3.5191239453   -1.9287637200    2.2761340025
28   
Iteration 5 Energy -0.17416282
C       -3.1156943094   -0.4996093906    0.7090093024
C       -3.5839927829    0.3293812904   -0.3165236426
C       -2.6628167775    1.0231666631   -1.1127051327
N       -1.3319064188    0.9357685893   -0.9418924643
C       -0.8636005218    0.1526437501    0.0342752210
C       -1.7241041375   -0.5789318738    0.8755172518
N        0.5254998615    0.1273257838    0.1307246221
C        1.3703679342   -0.5190682814    0.9852231165
O        0.9983488076   -1.2349191821    1.8904934371
C        2.8555913774   -0.2832500151    0.7527946575
C        3.4821131053   -0.8733887840   -0.4980559610
C        3.4924129426    0.6268443606   -0.2986729477
C        2.7667994409    1.5410893073   -1.2868697877
H        3.4341766581   -0.4015141416    1.6643867980
H        4.4276775528    1.0827356874    0.0207366181
H       -4.6468266510    0.4401730810   -0.5015376853
H       -3.0034557604    1.6728617333   -1.9172419828
H       -1.3280296308   -1.2106901500    1.6595456645
H        0.9545816598    0.7209583356   -0.5483238095
H        4.4183964243   -1.4128470333   -0.3737710841
H        2.8182231361   -1.3054197908   -1.2440934001
H        2.0088628747    1.0098059035   -1.8746617020
H        2.2898015956    2.3812853258   -0.7674774150
H        3.4807001036    1.9605589357   -2.0061437143
C       -4.0766539980   -1.2716980366    1.5983414296
H       -4.6912280593   -0.5866029655    2.1937787959
H       -4.7502653144   -1.8936700926    0.9973869831
H       -3.5449744572   -1.9327887540    2.2933542048
28   
Iteration 6 Energy -0.17411009
C       -3.1083187595   -0.4935386916    0.7036391783
C       -3.5780551669    0.3349087667   -0.3211509712
C       -2.6504718758    1.0254875238   -1.1098113025
N       -1.3229888210    0.9283069277   -0.9253827895
C       -0.8637406216    0.1417288145    0.0522608217
C       -1.7222666227   -0.5912599011    0.8930950626
N        0.5260353269    0.1179723366    0.1477610928
C        1.3877185911   -0.5204471048    0.9922488775
O        1.0055757490   -1.2369001636    1.8936681451
C        2.8705988331   -0.2851328638    0.7579942517
C        3.4947351088   -0.8681825537   -0.4972447452
C        3.4849606623    0.6299460761   -0.3016973689
C        2.7411546689    1.5290568249   -1.2878616383
H        3.4531217248   -0.4046502433    1.6668473951
H        4.4199066999    1.0938789420    0.0070827287
H       -4.6405946774    0.4462436830   -0.5088092723
H       -2.9804791037    1.6781124452   -1.9163962955
H       -1.3338234739   -1.2251018934    1.6788683408
H        0.9463639990    0.7124688029   -0.5372668743
H        4.4370008880   -1.4000776323   -0.3885060522
H        2.8243166509   -1.2829555648   -1.2472093109
H        1.9906183917    0.9849781034   -1.8731347579
H        2.2512821048    2.3629655757   -0.7703565326
H        3.4461578122    1.9583983948   -2.0097709519
C       -4.0787863652   -1.2604509949    1.5839255272
H       -4.6940865602   -0.5729064128    2.1757599317
H       -4.7513899240   -1.8783621154    0.9778039786
H       -3.5545405070   -1.9242867536    2.2812408062
28   
Iteration 7 Energy -0.17426679
C       -3.1124954196   -0.4959502646    0.7061964820
C       -3.5824841873    0.3327413698   -0.3182886676
C       -2.6577690129    1.0250386643   -1.1090135939
N       -1.3290206874    0.9327212309   -0.9308148408
C       -0.8642456917    0.1473373376    0.0451192340
C       -1.7243231123   -0.5850812515    0.8849692874
N        0.5256798799    0.1248306811    0.1387661728
C        1.3787266269   -0.5183611690    0.9884135707
O        1.0038597249   -1.2361363040    1.8916889000
C        2.8630308411   -0.2853244100    0.7576916172
C        3.4912911149   -0.8699798121   -0.4950198470
C        3.4871667409    0.6280229515   -0.2985850173
C        2.7540778896    1.5314269509   -1.2892896222
H        3.4414759546   -0.4072642099    1.6687954497
H        4.4225771773    1.0874830390    0.0154224107
H       -4.6453175811    0.4432770213   -0.5046475727
H       -2.9923203676    1.6768529540   -1.9143810426
H       -1.3315230526   -1.2179651606    1.6693272126
H        0.9486219675    0.7183359656   -0.5451495228
H        4.4316666986   -1.4042030047   -0.3813155083
H        2.8242552502   -1.2839853593   -1.2484425007
H        2.0049297535    0.9916743110   -1.8803316599
H        2.2647600420    2.3673183566   -0.7744347649
H        3.4660149388    1.9579588822   -2.0060735296
C       -4.0773242160   -1.2659665668    1.5902486498
H       -4.6923549552   -0.5803168260    2.1845606429
H       -4.7503698924   -1.8858662903    0.9866381629
H       -3.5485816786   -1.9284187434    2.2855471815
28   
Iteration 8 Energy -0.17429475
C       -3.1125636673   -0.4966845334    0.7085256269
C       -3.5797635396    0.3317440659   -0.3175320395
C       -2.6577809017    1.0238575025   -1.1124909493
N       -1.3286537588    0.9304867493   -0.9351057910
C       -0.8648119283    0.1461585304    0.0421276907
C       -1.7235540895   -0.5851818253    0.8846655048
N        0.5248790363    0.1219286516    0.1360668121
C        1.3749577308   -0.5218162660    0.9880251837
O        1.0029431594   -1.2392036476    1.8924998194
C        2.8588593274   -0.2837394629    0.7569818453
C        3.4855226571   -0.8682883977   -0.4967467711
C        3.4871915345    0.6301309051   -0.2958742385
C        2.7586655534    1.5365238159   -1.2881779056
H        3.4385111507   -0.4090884484    1.6668823547
H        4.4251051746    1.0858786670    0.0160140345
H       -4.6425904747    0.4429229869   -0.5030667457
H       -2.9940449922    1.6743542373   -1.9182137591
H       -1.3304653419   -1.2173575814    1.6694910415
H        0.9502769709    0.7097950958   -0.5507920812
H        4.4282043409   -1.3989523664   -0.3845786195
H        2.8209214007   -1.2909172548   -1.2475234097
H        2.0120086531    0.9978767441   -1.8835682537
H        2.2664670201    2.3700429181   -0.7722108866
H        3.4734641863    1.9663196580   -2.0002712618
C       -4.0785442739   -1.2651675402    1.5938848696
H       -4.6923651523   -0.5782829717    2.1880232897
H       -4.7520762643   -1.8850963796    0.9908059568
H       -3.5507587501   -1.9280435879    2.2897560786
28   
Iteration 9 Energy -0.17430195
C       -3.1147872172   -0.4954309917    0.7073818369
C       -3.5871195294    0.3317369096   -0.3173706346
C       -2.6606500700    1.0214069956   -1.1089876581
N       -1.3308962849    0.9312600920   -0.9355008476
C       -0.8641442455    0.1477432637    0.0408766230
C       -1.7255129200   -0.5824004259    0.8815877977
N        0.5256158791    0.1236390186    0.1344552184
C        1.3742999849   -0.5203921858    0.9877151359
O        1.0007668846   -1.2369782646    1.8922855294
C        2.8582477428   -0.2829811907    0.7583502989
C        3.4848189272   -0.8680549330   -0.4951035486
C        3.4883852847    0.6301460021   -0.2937401963
C        2.7628367149    1.5360348901   -1.2884871656
H        3.4371513847   -0.4127888491    1.6680927469
H        4.4286139258    1.0826798161    0.0158708439
H       -4.6499126018    0.4430350742   -0.5031186780
H       -2.9965005058    1.6720301177   -1.9147804297
H       -1.3324205244   -1.2146101621    1.6663580839
H        0.9514486190    0.7085407629   -0.5547888639
H        4.4287627994   -1.3971176241   -0.3860675797
H        2.8202433293   -1.2892923498   -1.2466791150
H        2.0211203202    0.9961100216   -1.8889247345
H        2.2647494175    2.3668498278   -0.7738080123
H        3.4802512130    1.9698397090   -1.9954814582
C       -4.0771926007   -1.2657982268    1.5947110414
H       -4.6906707058   -0.5802191593    2.1907063316
H       -4.7510444226   -1.8868022661    0.9931072858
H       -3.5464559920   -1.9279856264    2.2889376194
28   
Iteration 10 Energy -0.17431906
C       -3.1138362923   -0.4964177072    0.7078247782
C       -3.5826659296    0.3321953434   -0.3172510978
C       -2.6586474557    1.0243803406   -1.1089242498
N       -1.3295742252    0.9330946797   -0.9324451314
C       -0.8645614949    0.1483747578    0.0438646887
C       -1.7251272043   -0.5835061143    0.8836930659
N        0.5253683456    0.1253212269    0.1374532713
C        1.3754777843   -0.5177215081    0.9902906408
O        1.0032062694   -1.2338318040    1.8959536785
C        2.8591601011   -0.2821468556    0.7598256049
C        3.4848622813   -0.8682659102   -0.4933955567
C        3.4868914349    0.6297556721   -0.2948804452
C        2.7599583835    1.5329777334   -1.2904648888
H        3.4383384212   -0.4137457631    1.6691129034
H        4.4283083260    1.0817424350    0.0119504847
H       -4.6454492596    0.4429499180   -0.5036551715
H       -2.9943411564    1.6756030936   -1.9142955381
H       -1.3313427221   -1.2159312298    1.6678826420
H        0.9500137062    0.7104693338   -0.5525549229
H        4.4293339567   -1.3969676792   -0.3876240455
H        2.8182062608   -1.2848864630   -1.2457046227
H        2.0219532981    0.9904519245   -1.8930925443
H        2.2570665909    2.3616451946   -0.7769931312
H        3.4773351655    1.9700653711   -1.9954069771
C       -4.0779102595   -1.2669412505    1.5924516540
H       -4.6919856476   -0.5816341576    2.1881446164
H       -4.7513676181   -1.8866865471    0.9891327015
H       -3.5486662516   -1.9301437857    2.2867050782
28   
Iteration 11 Energy -0.17432496
C       -3.1127592901   -0.4964665373    0.7072962814
C       -3.5815589900    0.3326412053   -0.3174373766
C       -2.6579388763    1.0257835295   -1.1090005606
N       -1.3289306188    0.9341115017   -0.9315224736
C       -0.8641159976    0.1490986716    0.0447031662
C       -1.7240953270   -0.5839100713    0.8842937404
N        0.5257149940    0.1260362202    0.1387224250
C        1.3760850456   -0.5160071194    0.9919747734
O        1.0029914391   -1.2302889944    1.8986936004
C        2.8599383523   -0.2811314363    0.7604595848
C        3.4834031244   -0.8691883265   -0.4929197280
C        3.4868342401    0.6293487739   -0.2960408175
C        2.7581468802    1.5323334535   -1.2907780299
H        3.4404028255   -0.4130939609    1.6688823636
H        4.4293800899    1.0808710283    0.0079748930
H       -4.6443393495    0.4431293764   -0.5038672546
H       -2.9935531207    1.6773153136   -1.9141567676
H       -1.3308643020   -1.2169015550    1.6683250532
H        0.9505571984    0.7104472972   -0.5516764085
H        4.4284334356   -1.3971788433   -0.3882934329
H        2.8159597212   -1.2884816571   -1.2430479058
H        2.0220443275    0.9883797423   -1.8945445786
H        2.2522937722    2.3584044728   -0.7760205691
H        3.4746412980    1.9730884067   -1.9943728825
C       -4.0774610662   -1.2675392985    1.5910238500
H       -4.6915675771   -0.5825290343    2.1870277530
H       -4.7509011831   -1.8865343836    0.9869021766
H       -3.5487362592   -1.9315375016    2.2849966467
28   
Iteration 12 Energy -0.17433033
C       -3.1118745354   -0.4966902252    0.7065688696
C       -3.5806232908    0.3335009109   -0.3173801198
C       -2.6568816733    1.0277363348   -1.1079431943
N       -1.3278516343    0.9364751049   -0.9304271981
C       -0.8635627945    0.1506988059    0.0454285448
C       -1.7231890156   -0.5839019491    0.8840147626
N        0.5261753490    0.1273271286    0.1399750963
C        1.3767237466   -0.5126758036    0.9945987679
O        1.0032228114   -1.2236054764    1.9037878696
C        2.8606535566   -0.2790473443    0.7615598054
C        3.4812375468   -0.8707295185   -0.4915100270
C        3.4870554476    0.6283082825   -0.2980281513
C        2.7560813125    1.5308060244   -1.2915553030
H        3.4423473991   -0.4119502812    1.6690568316
H        4.4315633887    1.0785237482    0.0017972967
H       -4.6433607484    0.4439320265   -0.5040391900
H       -2.9925561339    1.6799466742   -1.9125249106
H       -1.3298715107   -1.2178081736    1.6673048872
H        0.9513105312    0.7100524004   -0.5516840030
H        4.4268696690   -1.3979876556   -0.3885172947
H        2.8123771082   -1.2924334790   -1.2390212020
H        2.0250105792    0.9840401307   -1.8990189525
H        2.2432123160    2.3514739662   -0.7750832332
H        3.4717803536    1.9791947221   -1.9911400132
C       -4.0766966910   -1.2690357129    1.5891187000
H       -4.6905095330   -0.5848519386    2.1863745166
H       -4.7505203873   -1.8866513408    0.9840091804
H       -3.5481184002   -1.9344469999    2.2818752468
28   
Iteration 13 Energy -0.17433359
C       -3.1113465320   -0.4968918321    0.7058400671
C       -3.5808953283    0.3343462546   -0.3168598959
C       -2.6573174192    1.0296024950   -1.1068029522
N       -1.3282489856    0.9380711591   -0.9292932441
C       -0.8629046474    0.1516711008    0.0455997765
C       -1.7226219007   -0.5841403708    0.8830951160
N        0.5268853778    0.1283003059    0.1394002487
C        1.3770041588   -0.5092633699    0.9963198297
O        1.0032177585   -1.2166349333    1.9081318814
C        2.8610907839   -0.2767285055    0.7624853355
C        3.4793573748   -0.8724976717   -0.4898273750
C        3.4880430322    0.6269756679   -0.3000260369
C        2.7556780962    1.5297241343   -1.2923052140
H        3.4432958430   -0.4094268508    1.6696874742
H        4.4339371102    1.0761040222   -0.0029560235
H       -4.6437124805    0.4447225693   -0.5030734884
H       -2.9930664603    1.6826614663   -1.9106655458
H       -1.3294781642   -1.2192675727    1.6654714477
H        0.9521094836    0.7091746151   -0.5537740597
H        4.4245414333   -1.4005900072   -0.3869088462
H        2.8090480674   -1.2950084628   -1.2355809250
H        2.0296304174    0.9809556512   -1.9040631804
H        2.2362886657    2.3452496157   -0.7741904242
H        3.4711626866    1.9852987546   -1.9874613277
C       -4.0757424908   -1.2705979502    1.5877425168
H       -4.6887266349   -0.5873230729    2.1868871347
H       -4.7504146951   -1.8866833879    0.9820170329
H       -3.5468098021   -1.9376034396    2.2787083054
28   
Iteration 14 Energy -0.17433601
C       -3.1111315831   -0.4973434975    0.7054513473
C       -3.5807446690    0.3354779504   -0.3159568751
C       -2.6570732019    1.0314021624   -1.1051533966
N       -1.3278754131    0.9398942152   -0.9289338844
C       -0.8628170759    0.1521950987    0.0449832730
C       -1.7222859601   -0.5847587880    0.8816477653
N        0.5269832415    0.1279064748    0.1382594058
C        1.3772107973   -0.5065000696    0.9974536327
O        1.0036812128   -1.2105588531    1.9119371356
C        2.8612845823   -0.2743792037    0.7630546372
C        3.4781710055   -0.8740149289   -0.4882233816
C        3.4889132671    0.6257095444   -0.3022074515
C        2.7552372113    1.5288187586   -1.2930720336
H        3.4435849117   -0.4048576716    1.6705144778
H        4.4352988379    1.0745885926   -0.0063215380
H       -4.6435805399    0.4464526718   -0.5017547961
H       -2.9931530810    1.6855157856   -1.9080185241
H       -1.3284828144   -1.2211794573    1.6626643150
H        0.9522211739    0.7070388149   -0.5564351025
H        4.4222225293   -1.4037661064   -0.3835788033
H        2.8069311689   -1.2970684757   -1.2328296586
H        2.0328907945    0.9787984942   -1.9081004078
H        2.2311877465    2.3404791573   -0.7735718936
H        3.4704160794    1.9897595697   -1.9849850720
C       -4.0751578415   -1.2721880978    1.5867148530
H       -4.6868803177   -0.5897236088    2.1880682976
H       -4.7510602470   -1.8863517312    0.9804141677
H       -3.5459870908   -1.9411463189    2.2755771191
28   
Iteration 15 Energy -0.17433749
C       -3.1111451481   -0.4978223214    0.7051762454
C       -3.5811911848    0.3366582720   -0.3146429772
C       -2.6578445994    1.0334852249   -1.1033772746
N       -1.3285770854    0.9412719759   -0.9280261718
C       -0.8629205716    0.1521863094    0.0444731305
C       -1.7222371187   -0.5858422237    0.8803165270
N        0.5269639702    0.1273143723    0.1365854519
C        1.3770855567   -0.5044141810    0.9978828885
O        1.0037077347   -1.2061496489    1.9142024651
C        2.8611284426   -0.2722607166    0.7635491874
C        3.4777271159   -0.8749524592   -0.4865154405
C        3.4897237802    0.6249962360   -0.3034955821
C        2.7560935490    1.5280504574   -1.2943623663
H        3.4430961329   -0.3995801576    1.6716722084
H        4.4359871716    1.0740611521   -0.0074918912
H       -4.6441222680    0.4481645847   -0.4996031114
H       -2.9941945529    1.6888641739   -1.9050964777
H       -1.3281189523   -1.2237753475    1.6599264462
H        0.9520143840    0.7050840865   -0.5593719999
H        4.4203608964   -1.4066959078   -0.3793066521
H        2.8062343195   -1.2980359271   -1.2308765115
H        2.0349647353    0.9777127807   -1.9105106271
H        2.2308148772    2.3389440158   -0.7749025453
H        3.4715058337    1.9900792052   -1.9853011540
C       -4.0747549183   -1.2738748594    1.5858049170
H       -4.6852347704   -0.5922842939    2.1894075779
H       -4.7517860790   -1.8862301235    0.9789371624
H       -3.5452765446   -1.9447540933    2.2725441657
28   
Iteration 16 Energy -0.17433862
C       -3.1111134433   -0.4986019338    0.7047047725
C       -3.5815242744    0.3386034239   -0.3126985405
C       -2.6585687781    1.0372494498   -1.1002313286
N       -1.3292333219    0.9443117315   -0.9258526548
C       -0.8631804779    0.1528684320    0.0445268707
C       -1.7221452289   -0.5873160079    0.8787912679
N        0.5267674534    0.1272647161    0.1355670131
C        1.3768936740   -0.5014426018    0.9990791631
O        1.0035763998   -1.2004908900    1.9174816365
C        2.8608802826   -0.2694686213    0.7645892323
C        3.4774888383   -0.8758276118   -0.4837667898
C        3.4901552016    0.6245164908   -0.3047207239
C        2.7568507983    1.5260375962   -1.2971553460
H        3.4425559395   -0.3927662174    1.6734543605
H        4.4363400564    1.0740478831   -0.0091666166
H       -4.6445435923    0.4507579176   -0.4967712323
H       -2.9952590660    1.6946722633   -1.9001321800
H       -1.3276073562   -1.2275790406    1.6562727030
H        0.9516404602    0.7036111219   -0.5616742291
H        4.4189747745   -1.4090199658   -0.3737539037
H        2.8060731469   -1.2998795474   -1.2276467185
H        2.0358340366    0.9748860652   -1.9126778903
H        2.2316947169    2.3379595821   -0.7791779619
H        3.4725070196    1.9866893267   -1.9887570832
C       -4.0743470465   -1.2768649576    1.5837513035
H       -4.6836454779   -0.5968438585    2.1903105807
H       -4.7524424841   -1.8867525814    0.9755892863
H       -3.5446175527   -1.9504215477    2.2676625779
28   
Iteration 17 Energy -0.17434167
C       -3.1108000147   -0.5011351302    0.7028260003
C       -3.5823461383    0.3451086924   -0.3065298897
C       -2.6604775206    1.0503457866   -1.0893654970
N       -1.3309571043    0.9555780983   -0.9175379844
C       -0.8637649839    0.1563780004    0.0458934228
C       -1.7216632839   -0.5915788375    0.8742371853
N        0.5263234512    0.1287828818    0.1341614544
C        1.3764002633   -0.4910343362    1.0041445216
O        1.0030203571   -1.1812657557    1.9291904120
C        2.8603015423   -0.2605166586    0.7684344618
C        3.4766569227   -0.8785984963   -0.4744004675
C        3.4909487203    0.6231175796   -0.3084835280
C        2.7583059736    1.5181378114   -1.3071439468
H        3.4414700639   -0.3726308448    1.6790709335
H        4.4374637541    1.0740589430   -0.0161370482
H       -4.6456011809    0.4589853048   -0.4881854931
H       -2.9981348378    1.7145452095   -1.8832378135
H       -1.3259655309   -1.2395392721    1.6447263405
H        0.9508295780    0.7009839230   -0.5666976740
H        4.4158321440   -1.4143041348   -0.3571505799
H        2.8053719848   -1.3071326446   -1.2158248642
H        2.0375933738    0.9631768971   -1.9195453763
H        2.2332319586    2.3337450349   -0.7948968064
H        3.4744297740    1.9738064942   -2.0015527783
C       -4.0729462828   -1.2872897268    1.5759383330
H       -4.6792500927   -0.6128958282    2.1917115127
H       -4.7537806307   -1.8893685551    0.9630750459
H       -3.5424875788   -1.9692596934    2.2508776826
28   
Iteration 18 Energy -0.17432583
C       -3.1078937278   -0.5221262663    0.6855700631
C       -3.5880945130    0.3992024394   -0.2512963687
C       -2.6742921895    1.1597959581   -0.9900177041
N       -1.3433942270    1.0505459772   -0.8396873064
C       -0.8676402758    0.1867643147    0.0616853620
C       -1.7174987669   -0.6261533770    0.8347618192
N        0.5232443643    0.1428132088    0.1267305873
C        1.3735072861   -0.3998028750    1.0467722101
O        0.9999826500   -1.0117917793    2.0254641119
C        2.8566991674   -0.1830738301    0.7987556733
C        3.4700930297   -0.8987084325   -0.3929460924
C        3.4962659564    0.6102466197   -0.3403748549
C        2.7671462570    1.4446066969   -1.3918764429
H        3.4347276733   -0.2031918254    1.7180301529
H        4.4461812826    1.0730591601   -0.0791606219
H       -4.6530656043    0.5269901380   -0.4126202623
H       -3.0192313315    1.8803561646   -1.7297591088
H       -1.3129215383   -1.3375528941    1.5421989150
H        0.9438275613    0.6801029589   -0.6034545793
H        4.3925621967   -1.4470912765   -0.2168486179
H        2.7994631405   -1.3682702348   -1.1096890773
H        2.0498528342    0.8548295626   -1.9747359345
H        2.2407434753    2.2894180531   -0.9308103881
H        3.4859653826    1.8578120759   -2.1096471828
C       -4.0617448972   -1.3742463880    1.5036085632
H       -4.6431590805   -0.7529348704    2.1946401411
H       -4.7649656964   -1.9079246604    0.8537686577
H       -3.5263558374   -2.1234727816    2.0985354851
28   
Iteration 19 Energy -0.17435358
C       -3.1092920431   -0.5119687159    0.6941484199
C       -3.5855251795    0.3730542805   -0.2790769966
C       -2.6680025711    1.1071741417   -1.0399066100
N       -1.3377372237    1.0052181085   -0.8787486407
C       -0.8659527774    0.1727129180    0.0536768919
C       -1.7194713845   -0.6091495350    0.8545225700
N        0.5245933091    0.1369354157    0.1305200835
C        1.3745120832   -0.4449484601    1.0265079930
O        1.0007349290   -1.0964326313    1.9791812037