28
Properties=species:S:1:pos:R:3 Iteration=T 24=T Energy=T -0.18419442=T pbc="F F F"
C       -3.15923859      -0.52990391       0.80261204
C       -3.45967229      -1.86849020       0.52586305
C       -2.54184490      -2.63653381      -0.20225591
N       -1.37143559      -2.14946855      -0.64887883
C       -1.06041471      -0.88088592      -0.37059351
C       -1.93442946      -0.03384527       0.33320514
N        0.15209707      -0.43736330      -0.89062197
C        0.99430214       0.52956118      -0.42023302
O        0.73696787       1.25148517       0.52343343
C        2.26862370       0.64245104      -1.23015560
C        3.05397624       1.94169274      -1.15637849
C        3.62813763       0.68452879      -0.55104382
C        3.80658832       0.54507281       0.95734538
H        2.23745561       0.14569089      -2.19553662
H        4.44128722       0.20809117      -1.09468309
H       -4.39036549      -2.31270851       0.86184501
H       -2.75302115      -3.67785598      -0.43987834
H       -1.66671123       1.00026268       0.51287728
H        0.49569332      -1.03074118      -1.62032733
H        3.50627557       2.31511208      -2.07170297
H        2.70307255       2.71786197      -0.47876316
H        3.10808719       1.17641137       1.51857552
H        3.65189284      -0.49350533       1.27268508
H        4.82046298       0.83895479       1.25315717
C       -4.12716185       0.34470752       1.57967918
H       -5.11382338       0.35548771       1.10219916
H       -4.25113388      -0.02718561       2.60337788
H       -3.77565516       1.38130885       1.64178675
