28
Properties=species:S:1:pos:R:3 Iteration=T 27=T Energy=T -0.17834481=T pbc="F F F"
C       -3.11301272      -0.18037099       0.75733816
C       -3.52564138       0.54374519      -0.36704602
C       -2.56946943       0.94158414      -1.31045196
N       -1.25990404       0.66438947      -1.18732974
C       -0.84952437      -0.00531873      -0.10705486
C       -1.74449565      -0.46248177       0.87566236
N        0.51312822      -0.28092204      -0.06502954
C        1.33840932      -0.45367955       1.01030798
O        0.93442191      -0.48794283       2.15423437
C        2.82242791      -0.59022997       0.70386554
C        3.29586144      -1.16266110      -0.62556250
C        3.54529214       0.29345260      -0.30617417
C        2.88066521       1.41457536      -1.10302674
H        3.40555025      -0.86604295       1.57767176
H        4.56002634       0.56727370      -0.02335197
H       -4.57029727       0.79399549      -0.51706231
H       -2.86305537       1.49850261      -2.19873797
H       -1.38163004      -1.03220982       1.72258541
H        0.95401534      -0.17206206      -0.95591738
H        4.15115413      -1.83426332      -0.60648723
H        2.56151712      -1.40464884      -1.39004108
H        2.06471842       1.05708873      -1.74056075
H        2.48199848       2.18599110      -0.43288768
H        3.61128638       1.89572429      -1.76415886
C       -4.11421104      -0.64193951       1.80147797
H       -4.66247961       0.21049625       2.21912675
H       -4.84467896      -1.33179674       1.36324162
H       -3.62207250      -1.16004872       2.63296698
