28   
Iteration 0 Energy -0.17368794
C       -3.1587992600   -0.2084462100    0.6666175400
C       -3.8222263200   -0.5525098200   -0.5161826300
C       -3.0668279600   -0.8970541300   -1.6266326000
N       -1.7342135900   -0.9219471400   -1.6420508800
C       -1.1090819700   -0.5919147900   -0.5107651600
C       -1.7684059700   -0.2274720900    0.6683242900
N        0.2797801100   -0.6483217500   -0.6249504700
C        1.2440808900   -0.3819284100    0.3128813900
O        1.0063689700   -0.0176978700    1.4521470400
C        2.6346005400   -0.6416588600   -0.2006666200
C        3.2188711100    0.1496615800   -1.3439355000
C        3.7479345700    0.3280159400    0.0540639500
C        3.5143143700    1.6216986800    0.7924820400
H        2.8945735800   -1.6989624700   -0.1630731100
H        4.7125126100   -0.1352278500    0.2526568300
H       -4.9071689900   -0.5512157700   -0.5688165100
H       -3.5533826300   -1.1694817500   -2.5616126900
H       -1.1900902100    0.0291417100    1.5464906900
H        0.5867803300   -0.9210755400   -1.5496483600
H        3.8179663700   -0.3734976400   -2.0837154100
H        2.6180688200    0.9631738400   -1.7446011100
H        2.5628805100    2.0785800700    0.5046706800
H        3.4791986900    1.4572781200    1.8733945500
H        4.3149590500    2.3359952600    0.5705185600
C       -3.9247634100    0.1703499100    1.9000434000
H       -4.5682605500    1.0370468400    1.7102668600
H       -4.5757710400   -0.6502014700    2.2229422300
H       -3.2538962400    0.4178737600    2.7267488900
28   
Iteration 1 Energy -0.17516005
C       -3.2248165817   -0.2196241223    0.6648035550
C       -3.8349808173   -0.5668116096   -0.5443984395
C       -3.0278869256   -0.8944966413   -1.6250544742
N       -1.6935226126   -0.8987870030   -1.5830336183
C       -1.1065942764   -0.5670876670   -0.4302834856
C       -1.8332263100   -0.2195263508    0.7188565421
N        0.2886822773   -0.6076372793   -0.5055835888
C        1.2949655892   -0.3563104747    0.3933031722
O        1.1523008063    0.0025585208    1.5482674066
C        2.6496067637   -0.6334839782   -0.2023792164
C        3.1776890461    0.1588136942   -1.3727725915
C        3.7930217262    0.3187873979   -0.0063691952
C        3.6261822729    1.6123063986    0.7548826344
H        2.8953814863   -1.6940613194   -0.1876598991
H        4.7606441024   -0.1594970791    0.1325350641
H       -4.9164538997   -0.5813603886   -0.6417407695
H       -3.4705050283   -1.1693330405   -2.5809569639
H       -1.3077153033    0.0425531246    1.6262127936
H        0.5887776488   -0.8745547391   -1.4321329645
H        3.7244509513   -0.3682758377   -2.1496960901
H        2.5670096784    0.9842151237   -1.7322619406
H        2.6670562509    2.0884849972    0.5285756579
H        3.6537323478    1.4391157283    1.8351416446
H        4.4241262177    2.3153340448    0.4907485571
C       -4.0456876014    0.1422401044    1.8705359854
H       -4.6934417771    1.0007972975    1.6592830943
H       -4.6967140873   -0.6894811820    2.1635058616
H       -3.4120795934    0.3953244436    2.7252691655
28   
Iteration 2 Energy -0.17705999
C       -3.2219197161   -0.2138690393    0.6712565767
C       -3.8473430241   -0.5657057715   -0.5288469936
C       -3.0729604789   -0.9120658009   -1.6376899887
N       -1.7319388181   -0.9237024319   -1.6080228136
C       -1.0976429558   -0.5929467413   -0.4785871662
C       -1.8229458258   -0.2337606919    0.6732257751
N        0.2943812563   -0.6426231108   -0.5703028842
C        1.2797686063   -0.3816717984    0.3426461399
O        1.0819983451   -0.0228962652    1.4867509632
C        2.6590767544   -0.6447550917   -0.2090957189
C        3.2040077693    0.1652976080   -1.3636576757
C        3.7946687264    0.3284968303    0.0197847108
C        3.6135294112    1.6293528943    0.7853090506
H        2.9220110989   -1.6985263138   -0.1920368672
H        4.7671432614   -0.1296472883    0.1880786547
H       -4.9294255739   -0.5720434990   -0.6064482300
H       -3.5394416447   -1.1891016619   -2.5816481100
H       -1.2980739907    0.0326597507    1.5793577142
H        0.5941262853   -0.9167288354   -1.4881150252
H        3.7815982321   -0.3558396256   -2.1233396466
H        2.5927627010    0.9823485914   -1.7416127338
H        2.6590110239    2.1136151603    0.5475698226
H        3.6277087209    1.4492456381    1.8666620299
H        4.4157418365    2.3352131914    0.5408433885
C       -4.0208314665    0.1663995679    1.8984344188
H       -4.6625013153    1.0311099882    1.6931233550
H       -4.6713288182   -0.6589174514    2.2104310330
H       -3.3711782628    0.4212643295    2.7435282659
28   
Iteration 3 Energy -0.17732561
C       -3.1816438691   -0.2058933860    0.6523746211
C       -3.8471904666   -0.5631416296   -0.5259750956
C       -3.0839316265   -0.9379268772   -1.6417215282
N       -1.7388470418   -0.9657631964   -1.6194414540
C       -1.0979718161   -0.6266154940   -0.4964684083
C       -1.7767397326   -0.2358123256    0.6758381443
N        0.2901231658   -0.6925365074   -0.5925314029
C        1.2635822294   -0.4213528876    0.3242491875
O        1.0638359603   -0.0630192641    1.4661412929
C        2.6515735115   -0.6607124324   -0.2207014709
C        3.1692569379    0.1954055200   -1.3602481041
C        3.7735639091    0.3383535517    0.0237392702
C        3.5846592421    1.6275597016    0.8226539774
H        2.9398661160   -1.7061556376   -0.2282159817
H        4.7615805509   -0.0875182177    0.1852220422
H       -4.9295912818   -0.5541994376   -0.5861007607
H       -3.5626684426   -1.2228044081   -2.5772329244
H       -1.2552816692    0.0376149754    1.5827563651
H        0.5896878530   -0.9880063379   -1.4987319952
H        3.7655097346   -0.2951880659   -2.1266393385
H        2.5388499208    1.0042730400   -1.7244973487
H        2.6217287391    2.1092775615    0.6089094820
H        3.6216278956    1.4205544104    1.8999518978
H        4.3752551767    2.3505418610    0.5894872025
C       -3.9768980020    0.2059747676    1.8827292672
H       -4.6042629232    1.0784804535    1.6661789415
H       -4.6333092953   -0.6080477793    2.2116825430
H       -3.3223628308    0.4668606036    2.7241899199
28   
Iteration 4 Energy -0.17771851
C       -3.1931959028   -0.2000989308    0.6582529744
C       -3.8440821343   -0.5617418988   -0.5268762099
C       -3.0718717853   -0.9394237204   -1.6330756909
N       -1.7283805449   -0.9759446554   -1.6259494064
C       -1.0942948703   -0.6345041850   -0.5009378162
C       -1.7900884902   -0.2415000593    0.6584236882
N        0.2949914146   -0.6999318362   -0.5834189007
C        1.2733974446   -0.4273777523    0.3293710179
O        1.0767232692   -0.0682862113    1.4721603528
C        2.6583903447   -0.6613490395   -0.2225320495
C        3.1653448069    0.2036563073   -1.3605358339
C        3.7736814500    0.3403425488    0.0195147928
C        3.5757351322    1.6202124431    0.8256759095
H        2.9491334960   -1.7070473411   -0.2390530741
H        4.7654390566   -0.0809915803    0.1700142995
H       -4.9262761761   -0.5532929068   -0.5976889866
H       -3.5515905698   -1.2254307929   -2.5676865682
H       -1.2578077619    0.0313136622    1.5599940164
H        0.5982331627   -1.0004544705   -1.4889556561
H        3.7618176058   -0.2755829693   -2.1333837720
H        2.5285394478    1.0115969864   -1.7152589211
H        2.6069863340    2.0901587066    0.6160819915
H        3.6184616091    1.4087606744    1.9011038028
H        4.3584428990    2.3517113057    0.5931519749
C       -3.9812103832    0.2177458971    1.8885483502
H       -4.6056520873    1.0924719987    1.6727420100
H       -4.6395288153   -0.5924470711    2.2229901662
H       -3.3213357362    0.4776374719    2.7249259516
28   
Iteration 5 Energy -0.17772808
C       -3.1964347422   -0.2006908383    0.6605692649
C       -3.8335850340   -0.5629240523   -0.5308017749
C       -3.0688644065   -0.9405154102   -1.6403833302
N       -1.7259258999   -0.9707720901   -1.6114676272
C       -1.0959068795   -0.6298750641   -0.4836567317
C       -1.7950126532   -0.2381882227    0.6736358920
N        0.2940144153   -0.6964870199   -0.5684080900
C        1.2786462845   -0.4238920812    0.3392794455
O        1.0856425609   -0.0645020191    1.4828979315
C        2.6599421887   -0.6590421452   -0.2208315111
C        3.1603054741    0.2053127643   -1.3622096923
C        3.7779639346    0.3392733680    0.0121577181
C        3.5876382215    1.6176541957    0.8193718132
H        2.9458869585   -1.7064458255   -0.2434729350
H        4.7699651980   -0.0856518187    0.1507297100
H       -4.9158791447   -0.5543684224   -0.6035396085
H       -3.5429854948   -1.2261169224   -2.5779530739
H       -1.2659509918    0.0343780822    1.5768895872
H        0.5942470195   -0.9978311767   -1.4759888015
H        3.7510897905   -0.2719522650   -2.1403744564
H        2.5225906976    1.0153427916   -1.7104059552
H        2.6181885365    2.0879890961    0.6160729825
H        3.6375379097    1.4070504992    1.8942604549
H        4.3699192671    2.3474104474    0.5803832713
C       -3.9954328238    0.2133659790    1.8828960892
H       -4.6203729098    1.0866470110    1.6628621970
H       -4.6546150456   -0.5986719496    2.2110361097
H       -3.3426101355    0.4737056597    2.7240495863
28   
Iteration 6 Energy -0.17777579
C       -3.1958525135   -0.2019472270    0.6549603107
C       -3.8458981221   -0.5618865875   -0.5301231180
C       -3.0737586256   -0.9398293215   -1.6348118119
N       -1.7305010059   -0.9734179296   -1.6115215393
C       -1.0929078945   -0.6338854970   -0.4875963246
C       -1.7941412338   -0.2409549247    0.6682167682
N        0.2966695666   -0.7029984426   -0.5752486417
C        1.2765965737   -0.4264495540    0.3361621929
O        1.0800413540   -0.0649347304    1.4783711810
C        2.6605220618   -0.6596134645   -0.2189685370
C        3.1605708404    0.2065587058   -1.3595488428
C        3.7773313342    0.3408729016    0.0152111258
C        3.5866464471    1.6196179094    0.8226833414
H        2.9471165130   -1.7066286177   -0.2439235288
H        4.7703223493   -0.0817971150    0.1535176873
H       -4.9282255847   -0.5516207315   -0.6011958311
H       -3.5471672306   -1.2256865455   -2.5726715035
H       -1.2673941982    0.0319722936    1.5725584860
H        0.5976981161   -1.0066249151   -1.4815238474
H        3.7547578760   -0.2683755487   -2.1366172199
H        2.5220869809    1.0156705064   -1.7085721357
H        2.6174410280    2.0907774558    0.6195707395
H        3.6369788641    1.4087693013    1.8976073084
H        4.3691527169    2.3493023966    0.5841178009
C       -3.9881906074    0.2148779920    1.8811440703
H       -4.6116119373    1.0898919008    1.6636844731
H       -4.6476595051   -0.5954286585    2.2129733342
H       -3.3306218950    0.4739710334    2.7191424700
28   
Iteration 7 Energy -0.17779418
C       -3.1931979446   -0.2005640373    0.6567807754
C       -3.8408007105   -0.5607886713   -0.5300356631
C       -3.0709853119   -0.9407444726   -1.6364997122
N       -1.7275768348   -0.9777760777   -1.6184734510
C       -1.0943763049   -0.6377688018   -0.4924719919
C       -1.7907215980   -0.2429869645    0.6658489695
N        0.2949773679   -0.7074891336   -0.5759538093
C        1.2739341640   -0.4288769388    0.3351169051
O        1.0771555919   -0.0644280851    1.4762148303
C        2.6588177556   -0.6610792568   -0.2184708750
C        3.1561439004    0.2075622698   -1.3587843552
C        3.7747813947    0.3416916357    0.0156465670
C        3.5843549141    1.6202050637    0.8250336141
H        2.9465256265   -1.7074665984   -0.2462000867
H        4.7692302349   -0.0778432740    0.1528893432
H       -4.9229562356   -0.5494061590   -0.6018161877
H       -3.5478297380   -1.2258683319   -2.5728470776
H       -1.2614554781    0.0287756698    1.5692196993
H        0.5973632408   -1.0134128904   -1.4804120306
H        3.7521355454   -0.2650409005   -2.1360163164
H        2.5160468634    1.0156920606   -1.7072126442
H        2.6146007252    2.0916562492    0.6241910445
H        3.6369687294    1.4077174365    1.8997114717
H        4.3660780467    2.3508647047    0.5867094127
C       -3.9859300806    0.2180780938    1.8832243020
H       -4.6078928195    1.0939499757    1.6649723439
H       -4.6463446097   -0.5914418000    2.2151280347
H       -3.3290442197    0.4769918502    2.7221052717
28   
Iteration 8 Energy -0.17780285
C       -3.1947160877   -0.2012785326    0.6568295205
C       -3.8407915130   -0.5598784519   -0.5311017175
C       -3.0706277492   -0.9386226996   -1.6372732186
N       -1.7273955291   -0.9751215473   -1.6153749531
C       -1.0941336655   -0.6366616604   -0.4888703737
C       -1.7926761395   -0.2434853074    0.6685244790
N        0.2953593269   -0.7071756020   -0.5724294407
C        1.2756096018   -0.4272939158    0.3372450662
O        1.0786378607   -0.0603732114    1.4776032939
C        2.6600032774   -0.6606620793   -0.2168401307
C        3.1562945730    0.2062493617   -1.3588448150
C        3.7762938327    0.3416222078    0.0144383535
C        3.5866228059    1.6204843144    0.8225553318
H        2.9460248245   -1.7076066899   -0.2456319625
H        4.7708469739   -0.0783520411    0.1496274254
H       -4.9229434664   -0.5480922344   -0.6037017187
H       -3.5457558417   -1.2226559974   -2.5748202042
H       -1.2644295581    0.0269799406    1.5728447704
H        0.5971719472   -1.0138264516   -1.4771381935
H        3.7516001626   -0.2664759399   -2.1364709922
H        2.5161006350    1.0144378886   -1.7069389300
H        2.6166663119    2.0913347813    0.6217821207
H        3.6398643417    1.4092846630    1.8973610442
H        4.3681517861    2.3508105937    0.5826581317
C       -3.9887850443    0.2156505859    1.8824046327
H       -4.6105598192    1.0917499792    1.6645597120
H       -4.6497080317   -0.5942104027    2.2124442852
H       -3.3327235982    0.4733710616    2.7221568615
28   
Iteration 9 Energy -0.17780584
C       -3.1950640305   -0.2022066261    0.6569223323
C       -3.8403853714   -0.5576001905   -0.5323183608
C       -3.0698473110   -0.9347249544   -1.6386565752
N       -1.7267012726   -0.9722954816   -1.6150477763
C       -1.0935723744   -0.6366250612   -0.4876054315
C       -1.7931840443   -0.2456272908    0.6698688383
N        0.2959389645   -0.7087439154   -0.5705644166
C        1.2751403651   -0.4255289401    0.3393474263
O        1.0789435792   -0.0539322321    1.4783374706
C        2.6596904271   -0.6606341187   -0.2136235161
C        3.1550843410    0.2036534728   -1.3580529697
C        3.7763878360    0.3418298403    0.0141820319
C        3.5878742098    1.6222849253    0.8197987727
H        2.9440125251   -1.7080483488   -0.2430557126
H        4.7711929086   -0.0778949323    0.1482912801
H       -4.9224823038   -0.5446404609   -0.6057116597
H       -3.5442495777   -1.2164218105   -2.5772749070
H       -1.2655430732    0.0220808151    1.5753387455
H        0.5982985886   -1.0171174806   -1.4745691200
H        3.7504552365   -0.2699085931   -2.1351105867
H        2.5148544202    1.0113896635   -1.7071445231
H        2.6180895862    2.0932298741    0.6185223408
H        3.6414771128    1.4132528065    1.8949886768
H        4.3696984206    2.3516590746    0.5779916040
C       -3.9897397917    0.2126064359    1.8826613880
H       -4.6106598705    1.0896689748    1.6662633324
H       -4.6516074596   -0.5974273802    2.2103719709
H       -3.3340998244    0.4679245645    2.7234477022
28   
Iteration 10 Energy -0.17781144
C       -3.1973260980   -0.2054298747    0.6574805198
C       -3.8406614364   -0.5503189201   -0.5358864153
C       -3.0674959216   -0.9215898486   -1.6422273163
N       -1.7245854000   -0.9627160638   -1.6145863070
C       -1.0933895669   -0.6359233676   -0.4834505905
C       -1.7957177756   -0.2523255223    0.6748261894
N        0.2961349623   -0.7123309244   -0.5630002200
C        1.2751856509   -0.4203246244    0.3444369049
O        1.0763441124   -0.0351497765    1.4784768823
C        2.6605051381   -0.6607821371   -0.2045462487
C        3.1540832776    0.1950193165   -1.3563143658
C        3.7783807068    0.3425178074    0.0132532967
C        3.5930202027    1.6286079147    0.8102901489
H        2.9404713617   -1.7093856473   -0.2340586221
H        4.7737262853   -0.0763193471    0.1460924899
H       -4.9225181017   -0.5340099176   -0.6122342684
H       -3.5395348766   -1.1956568022   -2.5842896061
H       -1.2703319981    0.0064157897    1.5841894062
H        0.5991672250   -1.0259990454   -1.4650103893
H        3.7499178728   -0.2821749934   -2.1307880334
H        2.5140184598    1.0010468050   -1.7096809924
H        2.6240936867    2.1001610310    0.6064023316
H        3.6468017423    1.4267552473    1.8868223839
H        4.3761628676    2.3547241164    0.5630225820
C       -3.9943489206    0.2021450174    1.8839308577
H       -4.6126896233    1.0821864512    1.6722923561
H       -4.6590193713   -0.6087052136    2.2038525279
H       -3.3403922443    0.4497651913    2.7283027893
28   
Iteration 11 Energy -0.17781934
C       -3.1984408547   -0.2089560246    0.6589994983
C       -3.8394494755   -0.5403960851   -0.5394695780
C       -3.0644507185   -0.9040478244   -1.6471416127
N       -1.7217427404   -0.9499214660   -1.6165348520
C       -1.0928069739   -0.6346096696   -0.4808868214
C       -1.7969771138   -0.2606422696    0.6794392177
N        0.2966020467   -0.7160918401   -0.5564798760
C        1.2741686052   -0.4142041891    0.3492815663
O        1.0740415330   -0.0139804582    1.4778584818
C        2.6603692371   -0.6614445906   -0.1945513035
C        3.1543054345    0.1830692601   -1.3546213567
C        3.7790033592    0.3432353328    0.0132660747
C        3.5946360926    1.6368488442    0.7983322406
H        2.9372774416   -1.7109672412   -0.2190122924
H        4.7743641726   -0.0745178669    0.1493232887
H       -4.9210188631   -0.5199087976   -0.6186809481
H       -3.5349385973   -1.1680710280   -2.5928420226
H       -1.2731925238   -0.0135596101    1.5929819035
H        0.6009710517   -1.0357331641   -1.4558695718
H        3.7510472420   -0.3007542922   -2.1242855482
H        2.5149717167    0.9863229747   -1.7155844169
H        2.6269498532    2.1083322345    0.5883690599
H        3.6459160902    1.4445516387    1.8767498826
H        4.3795586397    2.3593116305    0.5460434264
C       -3.9975890169    0.1891907708    1.8872412257
H       -4.6128372758    1.0729925662    1.6823547115
H       -4.6654914994   -0.6227251981    2.1975849468
H       -3.3452446533    0.4268790636    2.7357329326
28   
Iteration 12 Energy -0.17784005
C       -3.1997689419   -0.2155299596    0.6624203922
C       -3.8365530977   -0.5208923425   -0.5453776362
C       -3.0585441003   -0.8693790443   -1.6561898889
N       -1.7161793128   -0.9243468459   -1.6217200914
C       -1.0917374287   -0.6313027829   -0.4776658635
C       -1.7984395348   -0.2763461355    0.6871583567
N        0.2972949063   -0.7220397872   -0.5458107894
C        1.2716853881   -0.4026281398    0.3570766987
O        1.0695263606    0.0240586322    1.4754939877
C        2.6595187239   -0.6627756329   -0.1766268488
C        3.1565269482    0.1592745884   -1.3516372557
C        3.7792863281    0.3444877711    0.0141139630
C        3.5949247519    1.6528440819    0.7749018879
H        2.9325454811   -1.7134659082   -0.1868835528
H        4.7739977260   -0.0713382504    0.1603521981
H       -4.9175411915   -0.4926166731   -0.6294445482
H       -3.5268487174   -1.1137898988   -2.6082272134
H       -1.2771017041   -0.0519007965    1.6079966688
H        0.6043025285   -1.0522923710   -1.4402046220
H        3.7550967452   -0.3390954281   -2.1105749806
H        2.5192109542    0.9565893895   -1.7290196855
H        2.6299373446    2.1236550258    0.5510774122
H        3.6392713311    1.4795405029    1.8569061874
H        4.3835672150    2.3683077887    0.5143503803
C       -4.0025428500    0.1639819583    1.8946002089
H       -4.6121677374    1.0547270579    1.7033927393
H       -4.6762230556   -0.6499542160    2.1866265670
H       -3.3530428697    0.3824301844    2.7505135304
28   
Iteration 13 Energy -0.17782995
C       -3.1957295867   -0.2167672429    0.6631579111
C       -3.8367250518   -0.5135826305   -0.5444663947
C       -3.0621069198   -0.8585218753   -1.6586682358
N       -1.7198397263   -0.9173147947   -1.6260682403
C       -1.0917210124   -0.6317951359   -0.4821437158
C       -1.7947096663   -0.2813973088    0.6860629224
N        0.2968127636   -0.7265911123   -0.5527131240
C        1.2683646510   -0.4028381165    0.3516267597
O        1.0548027391    0.0270573420    1.4667341380
C        2.6594996599   -0.6637213772   -0.1731213959
C        3.1639323210    0.1517207652   -1.3495200748
C        3.7767416973    0.3460040798    0.0193830963
C        3.5856870476    1.6590776164    0.7702239527
H        2.9356677264   -1.7136899325   -0.1714809209
H        4.7703449624   -0.0685559151    0.1763840801
H       -4.9178524735   -0.4815608141   -0.6256736875
H       -3.5326341422   -1.0967035747   -2.6111865497
H       -1.2703279434   -0.0639115570    1.6069386772
H        0.6041208598   -1.0595896436   -1.4461152569
H        3.7671193723   -0.3518161697   -2.1013199714
H        2.5282037361    0.9457201444   -1.7364251273
H        2.6221464239    2.1277282313    0.5360911356
H        3.6221882057    1.4930071009    1.8536157599
H        4.3758539466    2.3732771121    0.5108669288
C       -3.9948054883    0.1582767174    1.8989459512
H       -4.6022745531    1.0517920613    1.7139228218
H       -4.6700733143   -0.6553566225    2.1881231967
H       -3.3426840330    0.3702554247    2.7544235777
28   
Iteration 14 Energy -0.17785446
C       -3.1995976122   -0.2175817694    0.6629679361
C       -3.8373646355   -0.5146050971   -0.5462469902
C       -3.0594770290   -0.8582174615   -1.6584968201
N       -1.7172390929   -0.9155033752   -1.6225172274
C       -1.0918312031   -0.6297726821   -0.4771219402
C       -1.7985947594   -0.2806549669    0.6893137112
N        0.2970955322   -0.7232835976   -0.5452579797
C        1.2712334995   -0.4005221449    0.3568473693
O        1.0637698101    0.0293329064    1.4731132804
C        2.6600882055   -0.6630123601   -0.1730650981
C        3.1613521367    0.1520863848   -1.3510330805
C        3.7792992984    0.3451979017    0.0157202526
C        3.5926147825    1.6583064236    0.7675709461
H        2.9349686706   -1.7133283812   -0.1725558609
H        4.7729033110   -0.0707183962    0.1690962261
H       -4.9183257992   -0.4837639006   -0.6301337545
H       -3.5272752405   -1.0965813306   -2.6123123673
H       -1.2771769401   -0.0629113841    1.6117471325
H        0.6041435428   -1.0560169696   -1.4388734712
H        3.7611397825   -0.3520692168   -2.1051274393
H        2.5252610921    0.9469976933   -1.7354564155
H        2.6288610893    2.1282578568    0.5369823833
H        3.6327567033    1.4919178362    1.8507784083
H        4.3827867279    2.3715385871    0.5055867433
C       -4.0020430736    0.1560819746    1.8969627605
H       -4.6100468754    1.0490042557    1.7108402552
H       -4.6771009479   -0.6584106051    2.1842019944
H       -3.3521987730    0.3684345914    2.7540672603
28   
Iteration 15 Energy -0.17786791
C       -3.1996855854   -0.2190327216    0.6644211644
C       -3.8350011305   -0.5089000635   -0.5478263681
C       -3.0569503988   -0.8479990050   -1.6613051917
N       -1.7148756158   -0.9076567969   -1.6245469562
C       -1.0910916209   -0.6282806389   -0.4767569495
C       -1.7988457576   -0.2847312258    0.6906123420
N        0.2977645017   -0.7239030314   -0.5425776639
C        1.2703286567   -0.3974637950    0.3598886465
O        1.0661650711    0.0369040382    1.4750388893
C        2.6587259872   -0.6632497172   -0.1692893906
C        3.1617564580    0.1453938084   -1.3508022742
C        3.7780355527    0.3453434780    0.0157719596
C        3.5905549297    1.6623740041    0.7604186962
H        2.9345766695   -1.7132868189   -0.1598544991
H        4.7709347504   -0.0706489754    0.1734760784
H       -4.9158009289   -0.4760792695   -0.6331356867
H       -3.5244085984   -1.0807093857   -2.6166806588
H       -1.2773447354   -0.0733721711    1.6145381035
H        0.6061788607   -1.0588421860   -1.4349600136
H        3.7611330929   -0.3638604517   -2.1017746045
H        2.5262076046    0.9383398781   -1.7401349854
H        2.6273098553    2.1313467432    0.5258066437
H        3.6289784751    1.5017068747    1.8445378398
H        4.3814233142    2.3739211238    0.4959759897
C       -4.0030498141    0.1490853094    1.8994260682
H       -4.6095893013    1.0438458330    1.7174012208
H       -4.6795112146   -0.6660274465    2.1815541975
H       -3.3539168659    0.3559853813    2.7583756140
28   
Iteration 16 Energy -0.17788479
C       -3.2012605481   -0.2218799474    0.6653396427
C       -3.8354011975   -0.5009679683   -0.5500546454
C       -3.0548443669   -0.8329905276   -1.6638665401
N       -1.7129838581   -0.8954862668   -1.6249536684
C       -1.0911173182   -0.6253452218   -0.4739740557
C       -1.8006640928   -0.2901635232    0.6945951746
N        0.2976126161   -0.7237805212   -0.5367952698
C        1.2711399513   -0.3933166075    0.3630877796
O        1.0657168418    0.0471263566    1.4756647403
C        2.6593081350   -0.6635036314   -0.1643263896
C        3.1651564499    0.1357817822   -1.3508262826
C        3.7788274148    0.3456974388    0.0154995898
C        3.5904936655    1.6685394025    0.7494820161
H        2.9364361916   -1.7130329522   -0.1422950926
H        4.7706933161   -0.0703376934    0.1794940550
H       -4.9159684438   -0.4655128906   -0.6373375726
H       -3.5204296755   -1.0577725861   -2.6220497727
H       -1.2807089622   -0.0877546427    1.6214479409
H        0.6063196659   -1.0618129428   -1.4279751476
H        3.7642380567   -0.3807520703   -2.0970282527
H        2.5305329686    0.9258505926   -1.7474344877
H        2.6281501661    2.1363382022    0.5089591135
H        3.6263459299    1.5163147032    1.8348941476
H        4.3825648241    2.3773848799    0.4814222729
C       -4.0062907611    0.1378612537    1.9016329372
H       -4.6109458929    1.0350794509    1.7255381022
H       -4.6845867066   -0.6783142308    2.1761733739
H       -3.3583321492    0.3369529324    2.7632845029
28   
Iteration 17 Energy -0.17790682
C       -3.2014897165   -0.2255705469    0.6671308606
C       -3.8340227475   -0.4889997613   -0.5525888715
C       -3.0524374442   -0.8115833360   -1.6684738490
N       -1.7108699127   -0.8787840958   -1.6266838185
C       -1.0904507900   -0.6223046734   -0.4718001507
C       -1.8012169750   -0.2986123401    0.6992200795
N        0.2979510675   -0.7259112118   -0.5320700435
C        1.2702979255   -0.3878258102    0.3661534498
O        1.0631219123    0.0625852824    1.4744409296
C        2.6590847195   -0.6641179815   -0.1563411767
C        3.1694024777    0.1215897333   -1.3497824897
C        3.7783700499    0.3465394340    0.0164415841
C        3.5878518403    1.6776036788    0.7348786177
H        2.9377680222   -1.7127212710   -0.1171654463
H        4.7690990591   -0.0685115350    0.1895559890
H       -4.9142866661   -0.4490103824   -0.6415882831
H       -3.5165806782   -1.0246460471   -2.6300290713
H       -1.2827834605   -0.1093126338    1.6297143207
H        0.6074534682   -1.0685663714   -1.4211930148
H        3.7694784793   -0.4046186016   -2.0883884551
H        2.5360976770    0.9071189833   -1.7573631459
H        2.6265833577    2.1430604562    0.4856077749
H        3.6196975987    1.5375251798    1.8220611813
H        4.3812317088    2.3830936201    0.4618758919
C       -4.0082603028    0.1227086270    1.9055582151
H       -4.6098697964    1.0236266636    1.7381253942
H       -4.6895413304   -0.6944821551    2.1694779017
H       -3.3616773048    0.3103298426    2.7708238429
28   
Iteration 18 Energy -0.17794021
C       -3.2015261235   -0.2305740390    0.6697335139
C       -3.8324454056   -0.4717211766   -0.5555093151
C       -3.0492168100   -0.7813403869   -1.6740713121
N       -1.7080735535   -0.8561377606   -1.6303944382
C       -1.0891660503   -0.6191219062   -0.4705489031
C       -1.8016134432   -0.3113102439    0.7037500459
N        0.2986461789   -0.7306277202   -0.5271610832
C        1.2684003298   -0.3805745920    0.3690563694
O        1.0571567494    0.0852612777    1.4702097292
C        2.6588938263   -0.6651201105   -0.1443467629
C        3.1755327223    0.1014081065   -1.3472890135
C        3.7773733701    0.3481190284    0.0186827703
C        3.5830664806    1.6903964747    0.7151280458
H        2.9392752313   -1.7121180631   -0.0825214155
H        4.7669456649   -0.0643324161    0.2041651918
H       -4.9122262072   -0.4249586147   -0.6467274008
H       -3.5120336796   -0.9776914706   -2.6398170740
H       -1.2847122273   -0.1406501425    1.6387351598
H        0.6095038466   -1.0799886324   -1.4130514401
H        3.7782880902   -0.4373488316   -2.0746105608
H        2.5439942598    0.8800901555   -1.7704712888
H        2.6229802042    2.1517445311    0.4537230141
H        3.6093607847    1.5673447015    1.8045634587
H        4.3777223126    2.3917380008    0.4352002897
C       -4.0096511652    0.1020842281    1.9116878140
H       -4.6067027252    1.0082843248    1.7568854117
H       -4.6953718091   -0.7159251064    2.1611832448
H       -3.3643985862    0.2732731146    2.7814141999
28   
Iteration 19 Energy -0.17799131
C       -3.2002235812   -0.2374980154    0.6736341769
C       -3.8283786608   -0.4469699582   -0.5590447652
C       -3.0442864793   -0.7388343227   -1.6821618543
N       -1.7038167867   -0.8250553618   -1.6361729249
C       -1.0876115255   -0.6156852767   -0.4695394539
C       -1.8007981646   -0.3298443902    0.7099771777
N        0.2991352146   -0.7392569221   -0.5208345877
C        1.2644649726   -0.3705792151    0.3722839815
O        1.0460931570    0.1189824311    1.4617145750