28
Properties=species:S:1:pos:R:3 Iteration=T 27=T Energy=T -0.18125416=T pbc="F F F"
C       -3.02226060      -0.59365630       0.91534209
C       -3.60645571       0.50405585       0.27273305
C       -2.78107546       1.51815171      -0.23049153
N       -1.44088867       1.48784743      -0.13175485
C       -0.86965019       0.43495638       0.45872893
C       -1.62344410      -0.61526130       1.01007246
N        0.51722703       0.48136680       0.55065166
C        1.41610306      -0.54527738       0.57162692
O        1.11528313      -1.72105338       0.60993784
C        2.84787014      -0.08527195       0.48849498
C        3.77495943      -0.72539694      -0.52169734
C        3.33891255       0.71565680      -0.70331776
C        2.44836800       1.09553445      -1.88272773
H        3.27788373       0.17348431       1.45107993
H        4.08620129       1.47886268      -0.49542893
H       -4.68303398       0.57969549       0.16468539
H       -3.20842713       2.38738061      -0.72769986
H       -1.12755461      -1.44033662       1.50731610
H        0.88639039       1.40228196       0.41382892
H        4.80221268      -0.91305968      -0.21900085
H        3.35410251      -1.47979400      -1.18380612
H        1.73480794       0.29958660      -2.12971680
H        1.87670116       2.00575537      -1.66559037
H        3.05364666       1.28601936      -2.77687454
C       -3.87457869      -1.71466311       1.48314871
H       -4.70800419      -1.31443450       2.07212130
H       -4.29393807      -2.32928969       0.67818279
H       -3.29136528      -2.37296358       2.13773201
