28
Properties=species:S:1:pos:R:3 Iteration=T 40=T Energy=T -611.65219998=T pbc="F F F"
C       -3.09014098      -0.26412110       0.51815282
C       -3.64552019       0.99720905       0.27915914
C       -2.79447752       2.08396786       0.14450453
N       -1.46691700       2.00502943       0.22861569
C       -0.94476031       0.79781991       0.45442085
C       -1.70591003      -0.36607672       0.60416416
N        0.44830077       0.81514692       0.51707684
C        1.32392193      -0.22061949       0.72103428
O        0.98081152      -1.38501789       0.85030163
C        2.75515540       0.22213887       0.67769230
C        3.81618562      -0.79407949       0.41125684
C        3.45819475       0.18276158      -0.66939842
C        2.72187791      -0.26939632      -1.90357728
H        2.99400165       1.06651877       1.32184412
H        4.16362140       0.99599105      -0.82965294
H       -4.72076981       1.12767981       0.19827582
H       -3.19561515       3.07835423      -0.04373559
H       -1.20719599      -1.31055503       0.77845318
H        0.83193077       1.73944955       0.36922367
H        4.76578354      -0.68820815       0.92676369
H        3.46270104      -1.81578435       0.30079919
H        2.03890255      -1.09338805      -1.67273233
H        2.12995549       0.54558792      -2.33619129
H        3.42482956      -0.62019819      -2.66684791
C       -3.96124576      -1.47291940       0.69484415
H       -4.45252186      -1.45378702       1.67519494
H       -4.75116890      -1.50676291      -0.06282059
H       -3.37992850      -2.39653279       0.63078827
