28
Properties=species:S:1:pos:R:3 Iteration=T 22=T Energy=T -0.17954199=T pbc="F F F"
C       -3.08408375      -0.60732781       0.63694812
C       -3.56171484       0.05547849      -0.49951435
C       -2.64597681       0.52760628      -1.44885653
N       -1.31609932       0.37976124      -1.32013732
C       -0.84611570      -0.22928882      -0.22840051
C       -1.69505177      -0.75375493       0.76128744
N        0.53631820      -0.37265158      -0.17804618
C        1.36638208      -0.41899217       0.90718099
O        0.96149790      -0.45536839       2.05079179
C        2.85539361      -0.42706345       0.60463288
C        3.40847139      -0.55489306      -0.80949527
C        3.51059809       0.76353085      -0.07679613
C        2.73407120       1.99404015      -0.53834087
H        3.44170711      -0.88347948       1.39665171
H        4.49147398       1.03628261       0.30788017
H       -4.62519229       0.20218922      -0.65419499
H       -2.98966044       1.03909616      -2.34644428
H       -1.27999379      -1.27032032       1.61842250
H        0.96686177      -0.25361306      -1.07254586
H        4.32414013      -1.12729820      -0.93928382
H        2.72889113      -0.61415603      -1.65559294
H        1.84633825       1.73834281      -1.12719026
H        2.40876697       2.59115609       0.32214265
H        3.36658495       2.63216474      -1.16674669
C       -4.03836755      -1.14422615       1.68894294
H       -4.57175173      -0.32464276       2.18433781
H       -4.78411696      -1.80890184       1.23764968
H       -3.50936875      -1.71346460       2.46231494
