28   
Iteration 0 Energy -0.16944706
C       -3.0487463700   -0.5992420800    0.8545791900
C       -3.6543788100    0.3287342000    0.0008875400
C       -2.8462143800    1.1955746700   -0.7189767800
N       -1.5151402700    1.2018162700   -0.6508813300
C       -0.9446173100    0.3147776100    0.1669734200
C       -1.6609310400   -0.6050073700    0.9404884400
N        0.4478573200    0.3985737600    0.1610796600
C        1.3588067000   -0.3163293500    0.8920577500
O        1.0520331900   -1.1554472500    1.7230620800
C        2.8043635400   -0.0049160400    0.6300516500
C        3.5922462800   -0.7922338800   -0.3876889200
C        3.4386846600    0.6899812100   -0.5540674700
C        2.7072738100    1.2438106700   -1.7535065100
H        3.3196433100    0.1359381300    1.5771248100
H        4.3079026100    1.2829608200   -0.2741735400
H       -4.7350012800    0.3735404300   -0.0995208800
H       -3.2864174300    1.9291463800   -1.3922386700
H       -1.1281396100   -1.2910845300    1.5861193000
H        0.7874918500    1.1340897400   -0.4416782400
H        4.5447603500   -1.2135880400   -0.0812088400
H        3.0236574700   -1.4197684900   -1.0703085500
H        1.9211815400    0.5690290000   -2.1075616300
H        2.2597679100    2.2259783400   -1.5529880300
H        3.4112860300    1.3761577400   -2.5821110700
C       -3.8724416000   -1.5631367100    1.6572303400
H       -4.5511096500   -1.0300132000    2.3330967700
H       -4.4922912700   -2.1866082500    1.0030237900
H       -3.2415279100   -2.2225292100    2.2587315600
28   
Iteration 1 Energy -0.17166996
C       -3.0712476622   -0.5923572788    0.8430861136
C       -3.6248827181    0.3494782197   -0.0292615064
C       -2.7694726863    1.1914422994   -0.7259414705
N       -1.4398335531    1.1581256987   -0.6158829660
C       -0.9081102512    0.2604119120    0.2182677429
C       -1.6852540120   -0.6345785630    0.9685221113
N        0.4884174426    0.3172103696    0.2432977158
C        1.4409622640   -0.3657895704    0.9541909761
O        1.2213546737   -1.2127836816    1.8019891026
C        2.8607452162    0.0072700959    0.6329050735
C        3.6373702903   -0.7532312481   -0.4138362452
C        3.4103462736    0.7218282415   -0.5820195165
C        2.6018346051    1.2339252203   -1.7522581380
H        3.4095635423    0.1780660631    1.5557121374
H        4.2628653454    1.3563302776   -0.3454022764
H       -4.6999989859    0.4249741772   -0.1625389949
H       -3.1670995707    1.9358801714   -1.4136409723
H       -1.2029113124   -1.3374077957    1.6331812827
H        0.8230012026    1.0510215951   -0.3620456291
H        4.6202694646   -1.1301929467   -0.1470773423
H        3.0678216085   -1.4103896431   -1.0672445918
H        1.8317516212    0.5220126979   -2.0675373603
H        2.1202914462    2.1962519189   -1.5359251744
H        3.2615738013    1.3918725551   -2.6124516111
C       -3.9457973948   -1.5323128023    1.6236690359
H       -4.6288151017   -0.9787123633    2.2783647890
H       -4.5629620291   -2.1400819909    0.9522924478
H       -3.3517838823   -2.2080590424    2.2451811091
28   
Iteration 2 Energy -0.17172451
C       -3.0391254837   -0.5848010923    0.8228421819
C       -3.5729691460    0.3620772719   -0.0568197178
C       -2.7286966949    1.2201896254   -0.7661075961
N       -1.3934549733    1.1765766168   -0.6387872876
C       -0.8373739866    0.2897433818    0.1934664218
C       -1.6434889425   -0.5990343045    0.9300228394
N        0.5561143758    0.3365717881    0.2376567082
C        1.4751788535   -0.3649492412    0.9664788438
O        1.1693989758   -1.2152425443    1.7780964954
C        2.9175882106   -0.0139261994    0.6903887352
C        3.6413885187   -0.7650485142   -0.4031960823
C        3.3621593274    0.7147401271   -0.5657516943
C        2.4522290153    1.1945270336   -1.6885320450
H        3.4983212202    0.1687050805    1.5899330269
H        4.2015706333    1.3903970968   -0.4125099205
H       -4.6460882677    0.4376768287   -0.1957648020
H       -3.1303707630    1.9614042424   -1.4550889439
H       -1.1869313915   -1.3142153801    1.5994380196
H        0.9192142696    1.0525736590   -0.3624528636
H        4.6504841995   -1.1126181531   -0.1944175994
H        3.0525424900   -1.4407716817   -1.0200606099
H        1.6808749033    0.4581573449   -1.9445287511
H        1.9609557244    2.1390497084   -1.4253166075
H        3.0378892757    1.3724933071   -2.5983405067
C       -3.9228525348   -1.5322876245    1.6073409601
H       -4.6051410939   -0.9766219366    2.2610947908
H       -4.5339914410   -2.1431248802    0.9327754717
H       -3.3354259468   -2.2120368776    2.2357365941
28   
Iteration 3 Energy -0.17381150
C       -3.0549774922   -0.5892053091    0.8340622775
C       -3.6067352871    0.3533587037   -0.0398086010
C       -2.7664059647    1.2140421847   -0.7532765976
N       -1.4292844328    1.1758069100   -0.6351118972
C       -0.8677234490    0.2896883851    0.1938104313
C       -1.6578861948   -0.6064085399    0.9392783384
N        0.5251994544    0.3420225739    0.2285061538
C        1.4540348873   -0.3535380064    0.9483457997
O        1.1416886977   -1.2017598573    1.7585376136
C        2.9068949159   -0.0143050460    0.6819391315
C        3.6453167200   -0.7703957118   -0.4004643781
C        3.3961194970    0.7133725230   -0.5674101809
C        2.5311426739    1.2152095313   -1.7196855027
H        3.4725868560    0.1588109900    1.5926227202
H        4.2423054425    1.3746698330   -0.3907894194
H       -4.6811524621    0.4236335105   -0.1704216237
H       -3.1742441757    1.9544093541   -1.4395474411
H       -1.1961447796   -1.3211118486    1.6058836918
H        0.8799551954    1.0588862163   -0.3735346646
H        4.6458927218   -1.1268390779   -0.1666567232
H        3.0651254403   -1.4400049426   -1.0321045197
H        1.7546082100    0.4964293383   -2.0075100977
H        2.0504509305    2.1684594461   -1.4685642580
H        3.1505117828    1.3848838524   -2.6086088754
C       -3.9319351501   -1.5405864297    1.6241036869
H       -4.6116941881   -0.9871887769    2.2823886308
H       -4.5449979019   -2.1531515608    0.9528415834
H       -3.3386526221   -2.2189835502    2.2487707686
28   
Iteration 4 Energy -0.17331453
C       -3.0362732467   -0.5791361682    0.8329619471
C       -3.6174600427    0.3500612429   -0.0377278880
C       -2.7691223217    1.2005481011   -0.7551538764
N       -1.4304552635    1.1748244564   -0.6544549209
C       -0.8841005423    0.2874474295    0.1811430337
C       -1.6391971167   -0.6176427451    0.9496625717
N        0.5079191946    0.3388254010    0.2094030120
C        1.4044305693   -0.3796878529    0.9469080213
O        1.1680928068   -1.2396790179    1.7694522324
C        2.8542146417   -0.0226611792    0.6759740236
C        3.6128023577   -0.7703521574   -0.4019403661
C        3.3850510879    0.7154312725   -0.5547562615
C        2.5601804034    1.2369659176   -1.7295366188
H        3.4052470189    0.1397743222    1.5974470396
H        4.2350745737    1.3647872292   -0.3538272044
H       -4.6933343215    0.4158570251   -0.1595011427
H       -3.1805093996    1.9367888999   -1.4436962151
H       -1.1649609448   -1.3266457425    1.6152134048
H        0.8775904558    1.0437828662   -0.3978274300
H        4.6123982530   -1.1194187424   -0.1544362257
H        3.0478715723   -1.4405907908   -1.0465439844
H        1.7892521835    0.5261316818   -2.0494225240
H        2.0767119382    2.1902664552   -1.4832873683
H        3.2087114951    1.4119740309   -2.5961769986
C       -3.9096262033   -1.5258277164    1.6341973166
H       -4.5843825635   -0.9687921787    2.2945129085
H       -4.5255047820   -2.1438816586    0.9706939105
H       -3.3106227242   -2.1989459173    2.2583162681
28   
Iteration 5 Energy -0.17465740
C       -3.0567609616   -0.5867976842    0.8410928273
C       -3.6229805959    0.3470283586   -0.0338369089
C       -2.7775252394    1.1992154963   -0.7541279481
N       -1.4382366278    1.1704591850   -0.6508821876
C       -0.8861986146    0.2854328347    0.1839129661
C       -1.6581385142   -0.6120048669    0.9456376682
N        0.5058052215    0.3318230136    0.2164468218
C        1.4216121683   -0.3735366400    0.9423113768
O        1.1492191675   -1.2286733028    1.7585048824
C        2.8715636428   -0.0179360387    0.6718173689
C        3.6262963653   -0.7694929868   -0.4061057837
C        3.4029939761    0.7189393851   -0.5578413324
C        2.5804661841    1.2421557496   -1.7343680713
H        3.4241952118    0.1437553667    1.5924618575
H        4.2542890521    1.3670808685   -0.3585271676
H       -4.6981888620    0.4165519211   -0.1587977026
H       -3.1892990375    1.9349374028   -1.4430071882
H       -1.1870980154   -1.3220091476    1.6123633082
H        0.8696769562    1.0372534032   -0.3932750275
H        4.6255200862   -1.1209482096   -0.1600048147
H        3.0592282775   -1.4389674147   -1.0496198096
H        1.8086300802    0.5324927154   -2.0553911420
H        2.0987864500    2.1961586134   -1.4877108165
H        3.2302105480    1.4162355338   -2.6003834821
C       -3.9306830078   -1.5336794399    1.6437279053
H       -4.6049465440   -0.9760542277    2.3040663942
H       -4.5464149210   -2.1523659497    0.9806288453
H       -3.3320234202   -2.2068495091    2.2685038806
28   
Iteration 6 Energy -0.17475694
C       -3.0557689158   -0.5855918816    0.8403993297
C       -3.6202618179    0.3464575054   -0.0369037052
C       -2.7767046627    1.1995976660   -0.7594271362
N       -1.4378014413    1.1609941610   -0.6445244516
C       -0.8832758700    0.2787655084    0.1921313864
C       -1.6577465673   -0.6174699111    0.9535276079
N        0.5085655662    0.3273048170    0.2260695713
C        1.4325606900   -0.3724197145    0.9465337899
O        1.1446744183   -1.2290595347    1.7554410860
C        2.8814974574   -0.0146722366    0.6758465135
C        3.6247901564   -0.7668753547   -0.4094489237
C        3.4019041469    0.7242064655   -0.5556461951
C        2.5778458933    1.2432742442   -1.7338063124
H        3.4412875849    0.1435939783    1.5927215377
H        4.2558975587    1.3720096346   -0.3671250021
H       -4.6953391624    0.4146486304   -0.1629657052
H       -3.1843154494    1.9350449950   -1.4510855853
H       -1.1963671325   -1.3301665603    1.6237105101
H        0.8697639902    1.0288270381   -0.3892131523
H        4.6279616321   -1.1170701939   -0.1775033688
H        3.0506400443   -1.4361525058   -1.0468902795
H        1.8121910196    0.5282302848   -2.0581941247
H        2.0887535323    2.1927913826   -1.4847376127
H        3.2277474325    1.4243284536   -2.5983733116
C       -3.9361787591   -1.5295031451    1.6414397216
H       -4.6107105117   -0.9690179544    2.2990715374
H       -4.5499138690   -2.1484992395    0.9767549694
H       -3.3416978078   -2.2033722857    2.2697941310
28   
Iteration 7 Energy -0.17479124
C       -3.0634891910   -0.5878150738    0.8437778036
C       -3.6281106385    0.3425809908   -0.0352484658
C       -2.7825058814    1.1938716571   -0.7577548929
N       -1.4427958397    1.1641188258   -0.6495615810
C       -0.8832665641    0.2854581508    0.1872071353
C       -1.6643108506   -0.6067342981    0.9464166491
N        0.5085093062    0.3336491818    0.2227239988
C        1.4281313221   -0.3704464707    0.9445356679
O        1.1397896410   -1.2291569938    1.7510065671
C        2.8776998955   -0.0146686587    0.6764418023
C        3.6175299070   -0.7688168409   -0.4098463073
C        3.4055911058    0.7248557351   -0.5507408440
C        2.5945045768    1.2481247731   -1.7361512437
H        3.4375627694    0.1354072374    1.5946401582
H        4.2651985746    1.3648777758   -0.3610961533
H       -4.7030329666    0.4109435120   -0.1625722038
H       -3.1932452962    1.9270173169   -1.4500023897
H       -1.2001256907   -1.3172748714    1.6169796320
H        0.8726378483    1.0311811302   -0.3953350436
H        4.6202115530   -1.1231867687   -0.1821848954
H        3.0392712447   -1.4340991317   -1.0477872667
H        1.8333727375    0.5335798856   -2.0722178007
H        2.1015244072    2.1959397689   -1.4882169483
H        3.2538752712    1.4337463472   -2.5925463767
C       -3.9368300138   -1.5344800254    1.6498539247
H       -4.6111418426   -0.9759584787    2.3093803357
H       -4.5495261384   -2.1581049622    0.9885458425
H       -3.3370300634   -2.2044054468    2.2773497523
28   
Iteration 8 Energy -0.17482369
C       -3.0593504806   -0.5880425698    0.8436495514
C       -3.6177639807    0.3438156819   -0.0379983940
C       -2.7735610495    1.1953896405   -0.7606024690
N       -1.4347072729    1.1644765276   -0.6499076118
C       -0.8847109218    0.2830429442    0.1899621213
C       -1.6610152463   -0.6106898679    0.9514343712
N        0.5071286102    0.3298431578    0.2280059245
C        1.4297754217   -0.3731182993    0.9474155253
O        1.1472682042   -1.2321260728    1.7560462533
C        2.8777514921   -0.0149736792    0.6762007510
C        3.6182487053   -0.7659443555   -0.4115287187
C        3.4005073651    0.7258725213   -0.5522407788
C        2.5831013290    1.2458180843   -1.7338355546
H        3.4388618658    0.1347023438    1.5937547340
H        4.2600783907    1.3665449460   -0.3644927656
H       -4.6924920978    0.4128813812   -0.1672675623
H       -3.1834772552    1.9282381640   -1.4536392259
H       -1.1942866725   -1.3190476261    1.6227232229
H        0.8704228823    1.0281302562   -0.3902747303
H        4.6228940120   -1.1168805368   -0.1877447360
H        3.0398709394   -1.4330022126   -1.0475019576
H        1.8251647473    0.5269355558   -2.0676660845
H        2.0844989356    2.1902577616   -1.4839877649
H        3.2387716748    1.4366932926   -2.5918323804
C       -3.9377430455   -1.5315100683    1.6464518424
H       -4.6132335688   -0.9709871064    2.3030668165
H       -4.5499760565   -2.1534830622    0.9831920152
H       -3.3420277794   -2.2026324665    2.2762145056
28   
Iteration 9 Energy -0.17483405
C       -3.0576461440   -0.5850444290    0.8410026910
C       -3.6221359182    0.3436021271   -0.0400850344
C       -2.7744019785    1.1930109768   -0.7608922428
N       -1.4356839725    1.1619431718   -0.6487677298
C       -0.8829473733    0.2823526804    0.1913700738
C       -1.6598125207   -0.6107731864    0.9530417052
N        0.5089091699    0.3313684499    0.2286535924
C        1.4311877528   -0.3729589131    0.9473195936
O        1.1468570833   -1.2316592119    1.7557040556
C        2.8796842433   -0.0163737052    0.6767114586
C        3.6192828534   -0.7663465492   -0.4121538901
C        3.4003562873    0.7251666835   -0.5524004498
C        2.5795528557    1.2452813214   -1.7314499063
H        3.4416281462    0.1311095861    1.5941003994
H        4.2609024371    1.3649951771   -0.3662602196
H       -4.6969400234    0.4114189353   -0.1693686261
H       -3.1822303717    1.9258134408   -1.4552121783
H       -1.1953172735   -1.3188451059    1.6260876687
H        0.8714540748    1.0302204815   -0.3894235240
H        4.6247015920   -1.1167190504   -0.1909457151
H        3.0398054240   -1.4335436035   -1.0469997617
H        1.8233268110    0.5246483407   -2.0655234892
H        2.0777854990    2.1872059779   -1.4784728589
H        3.2331873747    1.4409593353   -2.5899239103
C       -3.9350187800   -1.5285233997    1.6444798556
H       -4.6112046568   -0.9680974014    2.3004601445
H       -4.5467510434   -2.1515523740    0.9817496279
H       -3.3385324316   -2.1984552723    2.2747956282
28   
Iteration 10 Energy -0.17484367
C       -3.0580693450   -0.5859636985    0.8426827482
C       -3.6206562421    0.3415181364   -0.0407067329
C       -2.7762059107    1.1919127541   -0.7646856029
N       -1.4374054362    1.1600265741   -0.6506015589
C       -0.8826105661    0.2827668211    0.1908394422
C       -1.6599787317   -0.6092724675    0.9536885956
N        0.5091867386    0.3332433827    0.2280352250
C        1.4295127345   -0.3734113212    0.9468490423
O        1.1457981407   -1.2330244241    1.7543094615
C        2.8784335015   -0.0172799224    0.6766209692
C        3.6163313792   -0.7674030023   -0.4133727973
C        3.4011500914    0.7252873481   -0.5512413785
C        2.5832818366    1.2486863959   -1.7313172032
H        3.4410153822    0.1263259737    1.5941951398
H        4.2636740063    1.3624525989   -0.3651921607
H       -4.6954889789    0.4081777881   -0.1700096398
H       -3.1849964227    1.9230261615   -1.4602253041
H       -1.1960446372   -1.3162013257    1.6282182175
H        0.8724448997    1.0311200177   -0.3904034600
H        4.6218030841   -1.1189822952   -0.1940554340
H        3.0353893250   -1.4333341838   -1.0482338967
H        1.8292194110    0.5281792711   -2.0707600837
H        2.0791367742    2.1886136902   -1.4757845493
H        3.2393033165    1.4492196580   -2.5868908304
C       -3.9357031474   -1.5284277151    1.6477120938
H       -4.6121512604   -0.9669304715    2.3025070034
H       -4.5469288361   -2.1528715256    0.9858295875
H       -3.3394419914   -2.1972496252    2.2795901200
28   
Iteration 11 Energy -0.17485064
C       -3.0588069243   -0.5859156061    0.8434791242
C       -3.6197992693    0.3398906088   -0.0428102393
C       -2.7740129924    1.1882796419   -0.7675344631
N       -1.4352387574    1.1584681969   -0.6538131128
C       -0.8826389479    0.2825527511    0.1902995537
C       -1.6606520905   -0.6076110246    0.9545206171
N        0.5090717462    0.3322376527    0.2297005256
C        1.4303527019   -0.3750018152    0.9466734363
O        1.1457801994   -1.2357593761    1.7526626814
C        2.8791240202   -0.0185989222    0.6763762668
C        3.6152682802   -0.7674048587   -0.4157176996
C        3.4011418895    0.7256651319   -0.5506355098
C        2.5826958394    1.2514229866   -1.7291941991
H        3.4428105441    0.1215234929    1.5938206353
H        4.2650008299    1.3612141834   -0.3652379827
H       -4.6944330101    0.4067855792   -0.1736975030
H       -3.1827163745    1.9176668068   -1.4649323012
H       -1.1963886843   -1.3125568100    1.6309622555
H        0.8727014935    1.0298036946   -0.3889071740
H        4.6213138491   -1.1191704989   -0.1994009460
H        3.0329552849   -1.4324004301   -1.0502984213
H        1.8314573583    0.5296632432   -2.0722504952
H        2.0748471599    2.1883512090   -1.4699844155
H        3.2388016955    1.4582554670   -2.5831926711
C       -3.9367546441   -1.5266674787    1.6501541959
H       -4.6136802155   -0.9637900557    2.3032683789
H       -4.5474281303   -2.1527941248    0.9893554891
H       -3.3407737065   -2.1939050447    2.2839311032
28   
Iteration 12 Energy -0.17485566
C       -3.0585823888   -0.5849715219    0.8440305248
C       -3.6192063530    0.3374727915   -0.0459992062
C       -2.7725617487    1.1832288102   -0.7726724153
N       -1.4339374173    1.1540737639   -0.6577110959
C       -0.8822192031    0.2809058464    0.1898106363
C       -1.6606107803   -0.6064992851    0.9567894893
N        0.5094502269    0.3312119463    0.2304348274
C        1.4308847728   -0.3778952456    0.9454142309
O        1.1464604863   -1.2402884025    1.7497516816
C        2.8796852648   -0.0213410718    0.6754622240
C        3.6145184081   -0.7677985591   -0.4191201204
C        3.4014112586    0.7255949430   -0.5501067571
C        2.5813730048    1.2557850777   -1.7254501559
H        3.4442086920    0.1143431666    1.5930660390
H        4.2664971591    1.3593128375   -0.3641500002
H       -4.6937400596    0.4037728932   -0.1780879360
H       -3.1805761248    1.9102101269   -1.4729785952
H       -1.1967209573   -1.3085701450    1.6364828988
H        0.8730751802    1.0293628251   -0.3875456989
H        4.6207819662   -1.1203858076   -0.2052217639
H        3.0310523052   -1.4310682442   -1.0544467129
H        1.8331493401    0.5330936322   -2.0731480290
H        2.0694030621    2.1888368513   -1.4604027536
H        3.2369098470    1.4711597278   -2.5777626560
C       -3.9371168412   -1.5227899832    1.6532834348
H       -4.6146910562   -0.9576119525    2.3037320992
H       -4.5472797782   -2.1512413903    0.9942254379
H       -3.3416191421   -2.1876989690    2.2899175079
28   
Iteration 13 Energy -0.17486492
C       -3.0586188161   -0.5821746548    0.8469707918
C       -3.6177290370    0.3282501236   -0.0562894016
C       -2.7691952539    1.1647546158   -0.7913718441
N       -1.4308908885    1.1372518465   -0.6725697374
C       -0.8810316171    0.2743694992    0.1866542959
C       -1.6610035523   -0.6025638822    0.9640207696
N        0.5104687396    0.3267810736    0.2307864591
C        1.4317332066   -0.3890726016    0.9392649810
O        1.1472528371   -1.2580759957    1.7364543795
C        2.8808678576   -0.0314034479    0.6718394157
C        3.6116427498   -0.7694268606   -0.4312954122
C        3.4034116186    0.7256105311   -0.5474160257
C        2.5803058490    1.2731453593   -1.7125120037
H        3.4473761159    0.0901092385    1.5902080496
H        4.2717357312    1.3536408200   -0.3573045027
H       -4.6919655918    0.3925421627   -0.1917813520
H       -3.1754086148    1.8828723633   -1.5017967344
H       -1.1988399428   -1.2946497410    1.6550292912
H        0.8743430127    1.0270429321   -0.3845744031
H        4.6175532244   -1.1265367688   -0.2233310117
H        3.0249631603   -1.4251698411   -1.0714605490
H        1.8400536101    0.5502400911   -2.0766331556
H        2.0580277777    2.1947860976   -1.4283362676
H        3.2350332149    1.5143606776   -2.5584980742
C       -3.9390297870   -1.5091864988    1.6664432220
H       -4.6181168848   -0.9354856181    2.3077871325
H       -4.5479087505   -2.1460302250    1.0142897477
H       -3.3450308685   -2.1657762925    2.3130191921
28   
Iteration 14 Energy -0.17487264
C       -3.0592877197   -0.5793973882    0.8507878313
C       -3.6166113558    0.3178644109   -0.0666271515
C       -2.7664698930    1.1439777109   -0.8115513372
N       -1.4284244491    1.1179836963   -0.6893608513
C       -0.8802578786    0.2664225032    0.1821787003
C       -1.6619484262   -0.5984370772    0.9712569193
N        0.5110536128    0.3207494456    0.2296304336
C        1.4320053868   -0.4024978059    0.9309559764
O        1.1472686654   -1.2796138290    1.7191075597
C        2.8814547559   -0.0428220486    0.6673854186
C        3.6090268357   -0.7706793603   -0.4447760821
C        3.4059850920    0.7261133839   -0.5436733822
C        2.5814087622    1.2929444717   -1.6983866419
H        3.4489984356    0.0652422874    1.5867961497
H        4.2765870379    1.3488855417   -0.3468027928
H       -4.6905709081    0.3802244147   -0.2051978994
H       -3.1710664634    1.8522616559   -1.5326901901
H       -1.2013976768   -1.2794929154    1.6742037065
H        0.8752366831    1.0237310345   -0.3823501787
H        4.6136669778   -1.1337667573   -0.2410704917
H        3.0199482748   -1.4169356752   -1.0923456329
H        1.8466353701    0.5727386784   -2.0787126494
H        2.0524823283    2.2049194967   -1.3959172959
H        3.2359481221    1.5565821204   -2.5378015280
C       -3.9415462687   -1.4941440832    1.6819613762
H       -4.6216289593   -0.9110085755    2.3136664952
H       -4.5495263945   -2.1400628006    1.0379436728
H       -3.3489708820   -2.1415773043    2.3389871928
28   
Iteration 15 Energy -0.17489386
C       -3.0626375895   -0.5672555741    0.8671680685
C       -3.6122272058    0.2715476462   -0.1083670461
C       -2.7555632383    1.0515759748   -0.8944909806
N       -1.4185642912    1.0326723541   -0.7592788487
C       -0.8774922283    0.2312306914    0.1628227223
C       -1.6663817473   -0.5796482479    1.0004975945
N        0.5128560904    0.2939348466    0.2237900263
C        1.4325850757   -0.4610181557    0.8924063864
O        1.1464373630   -1.3736526583    1.6385514054
C        2.8832106780   -0.0922173008    0.6465958144
C        3.5987506233   -0.7727840172   -0.5034237954
C        3.4161471659    0.7290970810   -0.5262574017
C        2.5880862555    1.3757300225   -1.6354582271
H        3.4539347586   -0.0389920458    1.5688402925
H        4.2948351291    1.3298569314   -0.2992264818
H       -4.6850112945    0.3253918787   -0.2590822065
H       -3.1536860167    1.7160950556   -1.6595520386
H       -1.2123340612   -1.2114038189    1.7520891640
H        0.8779906945    1.0091209793   -0.3729165430
H        4.5974160453   -1.1611265910   -0.3177120352
H        3.0009967907   -1.3761563654   -1.1836197409
H        1.8711521815    0.6746737114   -2.0804874657
H        2.0384732506    2.2482924407   -1.2619803291
H        3.2425030046    1.7231712640   -2.4438982974
C       -3.9525039280   -1.4274663296    1.7471144918
H       -4.6359312481   -0.8054037919    2.3366585227
H       -4.5572796359   -2.1109537139    1.1398970728
H       -3.3657636481   -2.0341063894    2.4469176124
28   
Iteration 16 Energy -0.17492246
C       -3.0628265940   -0.5641500122    0.8716768533
C       -3.6119890867    0.2581820783   -0.1180699480
C       -2.7552439835    1.0266753614   -0.9156163318
N       -1.4183392607    1.0113268352   -0.7782194845
C       -0.8776115056    0.2243571612    0.1564283841
C       -1.6666785652   -0.5727672554    1.0068502573
N        0.5122245784    0.2900475884    0.2214773586
C        1.4300801017   -0.4752343498    0.8806021602
O        1.1411945039   -1.3972022788    1.6141023692
C        2.8817875893   -0.1063168019    0.6408558592
C        3.5944813392   -0.7738008190   -0.5186957015
C        3.4189536797    0.7291007316   -0.5202094978
C        2.5930137241    1.3971566625   -1.6183476463
H        3.4522616608   -0.0664034830    1.5639134733
H        4.2996730534    1.3231873530   -0.2836980632
H       -4.6846289666    0.3084158401   -0.2709712276
H       -3.1531495210    1.6786846563   -1.6914784496
H       -1.2122759523   -1.1911242625    1.7694247545
H        0.8784225738    1.0082103413   -0.3708133288
H        4.5903992236   -1.1707712552   -0.3364562383
H        2.9947257180   -1.3635980770   -1.2089742084
H        1.8753115867    0.7055034451   -2.0766671897
H        2.0449368299    2.2640678339   -1.2298000860
H        3.2488076698    1.7576529113   -2.4199395912
C       -3.9530094248   -1.4108250386    1.7645297973
H       -4.6374252662   -0.7798921651    2.3434004768
H       -4.5565798127   -2.1045072220    1.1677570844
H       -3.3665169700   -2.0057697409    2.4745357996
28   
Iteration 17 Energy -0.17487750
C       -3.0659466031   -0.5246700031    0.9177207506
C       -3.6032657793    0.0915433792   -0.2180155278
C       -2.7413815702    0.7156910844   -1.1294793177
N       -1.4069191921    0.7461469756   -0.9680325352
C       -0.8759289923    0.1373506894    0.0958187315
C       -1.6724191968   -0.4862559602    1.0723546347
N        0.5063772924    0.2453008585    0.2077600796
C        1.4069949012   -0.6321596169    0.7356771444
O        1.0888319966   -1.6537012451    1.3078666652
C        2.8680012382   -0.2648555258    0.5586093983
C        3.5516069043   -0.7595550313   -0.7014004063
C        3.4423606965    0.7285768935   -0.4504715829
C        2.6399579912    1.6159504351   -1.4010650565
H        3.4370129703   -0.3768628550    1.4765482532
H        4.3432849481    1.2399868683   -0.1168086443
H       -4.6732068294    0.0970272775   -0.3956657106
H       -3.1327322282    1.2119909215   -2.0160114060
H       -1.2169324747   -0.9332146602    1.9474634187
H        0.8779496848    1.0023842131   -0.3289458024
H        4.5190695448   -1.2412685509   -0.5803757854
H        2.9328349438   -1.1854268217   -1.4887924565
H        1.9042776000    1.0453076035   -1.9812676922
H        2.1196611280    2.4123124412   -0.8553820278
H        3.3091242964    2.0983211104   -2.1237092473
C       -3.9634380001   -1.2006900206    1.9401180256
H       -4.6605970927   -0.4806474820    2.3840204728
H       -4.5518139313   -1.9995691142    1.4739722386
H       -3.3827659955   -1.6488056982    2.7550890023
28   
Iteration 18 Energy -0.17473188
C       -3.0558158126   -0.5482022661    0.9004631197
C       -3.6142463856    0.1674993016   -0.1648844721
C       -2.7737187646    0.8800255280   -1.0305295637
N       -1.4370500699    0.9099048516   -0.8898240108
C       -0.8867603176    0.2188570331    0.1116468804
C       -1.6603208692   -0.5074314631    1.0327336311
N        0.4963142088    0.3136474024    0.2169175556
C        1.3835021886   -0.5463245383    0.7934181023
O        1.0438381837   -1.5279117003    1.4211742887
C        2.8484081360   -0.2086652353    0.6028652585
C        3.5584726038   -0.7777344209   -0.6083274438
C        3.4252744124    0.7239560586   -0.4589735625
C        2.6512602335    1.5079112190   -1.5181797318
H        3.4023530683   -0.2363524292    1.5362970141
H        4.3145879935    1.2691389123   -0.1484116379
H       -4.6868441455    0.1787955309   -0.3253816462
H       -3.1849276804    1.4489097497   -1.8628054099
H       -1.1798584954   -1.0405988045    1.8444782994
H        0.8800697819    1.0560985901   -0.3324887747
H        4.5300665758   -1.2374086697   -0.4429362555
H        2.9560191085   -1.2627947087   -1.3738345723
H        1.8531424630    0.9157362316   -1.9818548616
H        2.2137432812    2.4187477360   -1.0919574791
H        3.3245931386    1.8124382412   -2.3284600602
C       -3.9292786084   -1.3297592445    1.8665960432
H       -4.6267423717   -0.6639830711    2.3879836672
H       -4.5154896282   -2.0885736344    1.3353448927
H       -3.3305940118   -1.8457188818    2.6265241437
28   
Iteration 19 Energy -0.17514411
C       -3.0625420549   -0.5454730689    0.8936423742
C       -3.6083669243    0.1852513610   -0.1676725518
C       -2.7503375682    0.8909883321   -1.0208038533
N       -1.4143867726    0.8982073551   -0.8722039006
C       -0.8778174053    0.1910208117    0.1261019427
C       -1.6675218714   -0.5311706521    1.0388719922
N        0.5083455302    0.2733170260    0.2186201637
C        1.4156713072   -0.5531367692    0.8142020551
O        1.1090847644   -1.5273084972    1.4692427009