28   
Iteration 0 Energy -0.17874905
C       -3.0901409800   -0.2641211000    0.5181528200
C       -3.6455201900    0.9972090500    0.2791591400
C       -2.7944775200    2.0839678600    0.1445045300
N       -1.4669170000    2.0050294300    0.2286156900
C       -0.9447603100    0.7978199100    0.4544208500
C       -1.7059100300   -0.3660767200    0.6041641600
N        0.4483007700    0.8151469200    0.5170768400
C        1.3239219300   -0.2206194900    0.7210342800
O        0.9808115200   -1.3850178900    0.8503016300
C        2.7551554000    0.2221388700    0.6776923000
C        3.8161856200   -0.7940794900    0.4112568400
C        3.4581947500    0.1827615800   -0.6693984200
C        2.7218779100   -0.2693963200   -1.9035772800
H        2.9940016500    1.0665187700    1.3218441200
H        4.1636214000    0.9959910500   -0.8296529400
H       -4.7207698100    1.1276798100    0.1982758200
H       -3.1956151500    3.0783542300   -0.0437355900
H       -1.2071959900   -1.3105550300    0.7784531800
H        0.8319307700    1.7394495500    0.3692236700
H        4.7657835400   -0.6882081500    0.9267636900
H        3.4627010400   -1.8157843500    0.3007991900
H        2.0389025500   -1.0933880500   -1.6727323300
H        2.1299554900    0.5455879200   -2.3361912900
H        3.4248295600   -0.6201981900   -2.6668479100
C       -3.9612457600   -1.4729194000    0.6948441500
H       -4.4525218600   -1.4537870200    1.6751949400
H       -4.7511689000   -1.5067629100   -0.0628205900
H       -3.3799285000   -2.3965327900    0.6307882700
28   
Iteration 1 Energy -0.18066097
C       -3.1492596736   -0.2587485935    0.5218632621
C       -3.6543301994    1.0219228172    0.2789457414
C       -2.7586281597    2.0741365377    0.1466435223
N       -1.4339481757    1.9398690877    0.2372533854
C       -0.9477450449    0.7170629694    0.4670125542
C       -1.7681339970   -0.4113311821    0.6136457200
N        0.4483602654    0.6975098201    0.5331236084
C        1.3717464633   -0.2981972208    0.7346376683
O        1.1263456397   -1.4838129272    0.8768112074
C        2.7735120745    0.2326939170    0.6718031745
C        3.8967673938   -0.7166052415    0.4002916417
C        3.4657646209    0.2307752112   -0.6823085213
C        2.7492492096   -0.2733317989   -1.9111626653
H        2.9648163274    1.0942859312    1.3082230613
H        4.1157714566    1.0866911663   -0.8536453781
H       -4.7229141382    1.1950448654    0.1931870294
H       -3.1180987944    3.0837855874   -0.0446377834
H       -1.3204647496   -1.3786737201    0.7916714091
H        0.8227891941    1.6229944219    0.3810373446
H        4.8425671149   -0.5457715891    0.9057319453
H        3.6109556716   -1.7605778778    0.2996364399
H        2.1216172413   -1.1390622022   -1.6747155125
H        2.1033787727    0.5010492964   -2.3412885701
H        3.4677489589   -0.5809261969   -2.6788066022
C       -4.0679872364   -1.4347867743    0.6966274466
H       -4.5622135662   -1.3955080997    1.6747926838
H       -4.8552328446   -1.4394765126   -0.0648269235
H       -3.5224318925   -2.3808036298    0.6360628768
28   
Iteration 2 Energy -0.18287720
C       -3.1615729979   -0.2629721239    0.5356852427
C       -3.6762046532    1.0143845711    0.2932615667
C       -2.8014489026    2.0916622508    0.1487033593
N       -1.4697748423    1.9632812145    0.2316322213
C       -0.9473055115    0.7543825482    0.4612723769
C       -1.7702395125   -0.3761761306    0.6153029155
N        0.4472823522    0.7436893389    0.5197216008
C        1.3456606614   -0.2694663168    0.7207704440
O        1.0534994889   -1.4411621395    0.8677353921
C        2.7698579505    0.2179514606    0.6654277017
C        3.8895684100   -0.7576625836    0.4130486444
C        3.4921193509    0.2078233146   -0.6750745971
C        2.8019575276   -0.2678888256   -1.9422429860
H        2.9722489084    1.0739597605    1.3031892468
H        4.1588763440    1.0530112744   -0.8327943005
H       -4.7465542285    1.1743959777    0.2155639973
H       -3.1782440795    3.0951603348   -0.0420714448
H       -1.3251488164   -1.3443483117    0.7948756144
H        0.8276567345    1.6606744345    0.3662293385
H        4.8286408495   -0.5952905950    0.9353367032
H        3.6042639329   -1.8027644438    0.3109009370
H        2.1496550188   -1.1286303195   -1.7544448206
H        2.1862538751    0.5282859151   -2.3772093884
H        3.5414579781   -0.5732789008   -2.6914432511
C       -4.0676270382   -1.4583265154    0.7191405076
H       -4.5556085362   -1.4251439425    1.7002965455
H       -4.8578879807   -1.4752434504   -0.0400290569
H       -3.5113803973   -2.4000995749    0.6548251701
28   
Iteration 3 Energy -0.18318229
C       -3.1445888338   -0.2505759213    0.5495332367
C       -3.6964094858    1.0131236420    0.3084679230
C       -2.8287944755    2.1029100731    0.1476540050
N       -1.4909902430    1.9803781543    0.2171061282
C       -0.9618301947    0.7756787366    0.4512542511
C       -1.7480852410   -0.3808004271    0.6270432422
N        0.4299833352    0.7687728548    0.5041223007
C        1.3130848464   -0.2517036704    0.7057447795
O        1.0132790354   -1.4163317046    0.8721932103
C        2.7488060581    0.2144429438    0.6595295472
C        3.8635568604   -0.7897958095    0.4203876927
C        3.4955172951    0.2057575518   -0.6618505807
C        2.8448201778   -0.2652141680   -1.9621960310
H        2.9586480350    1.0619273888    1.3041265327
H        4.1743665337    1.0407501492   -0.8214488988
H       -4.7691548952    1.1574909195    0.2458167459
H       -3.2165052427    3.1025061014   -0.0420500956
H       -1.3116958282   -1.3515329785    0.8188403255
H        0.8152431905    1.6783251387    0.3499778114
H        4.7981350829   -0.6390215808    0.9555994878
H        3.5838115690   -1.8348700315    0.2961281174
H        2.1879137857   -1.1311454571   -1.8106989069
H        2.2449961182    0.5371591552   -2.4081075167
H        3.6104315418   -0.5599245740   -2.6898801335
C       -4.0503979548   -1.4580328718    0.7334936258
H       -4.5353163665   -1.4328134583    1.7160651187
H       -4.8376077575   -1.4779772806   -0.0295841831
H       -3.4912149192   -2.3992746862    0.6603420164
28   
Iteration 4 Energy -0.18357588
C       -3.1569515112   -0.2578070588    0.5491443167
C       -3.6948295567    1.0111549436    0.3049462387
C       -2.8232181695    2.0966121276    0.1446848948
N       -1.4847319908    1.9916646889    0.2133377649
C       -0.9558632465    0.7880332864    0.4495918595
C       -1.7586140737   -0.3557844341    0.6236579984
N        0.4358788328    0.7712230404    0.5068950057
C        1.3220696942   -0.2477001536    0.7072860559
O        1.0194060869   -1.4120349045    0.8726496076
C        2.7560431233    0.2173536821    0.6625065899
C        3.8627381220   -0.7923279745    0.4179553840
C        3.4952057710    0.2067523187   -0.6601408806
C        2.8360955803   -0.2645629826   -1.9533609213
H        2.9724027966    1.0602048487    1.3118816255
H        4.1808244152    1.0347747418   -0.8279018428
H       -4.7666847644    1.1628811310    0.2396742704
H       -3.2147807526    3.0943482999   -0.0467144167
H       -1.3133659187   -1.3224482431    0.8186436904
H        0.8241002119    1.6813578306    0.3556183735
H        4.8014734998   -0.6516971140    0.9481250415
H        3.5749211996   -1.8326867622    0.2771131520
H        2.1786014074   -1.1273318464   -1.7884460976
H        2.2351350311    0.5376094126   -2.3979609493
H        3.5949152318   -0.5638788898   -2.6860143287
C       -4.0539839825   -1.4709180352    0.7325623142
H       -4.5398221308   -1.4497955096    1.7148840000
H       -4.8393195020   -1.4976392750   -0.0319485139
H       -3.4876436071   -2.4071489405    0.6589395211
28   
Iteration 5 Energy -0.18360563
C       -3.1585846832   -0.2592372633    0.5492493125
C       -3.6817239008    1.0137012448    0.2988702630
C       -2.8147530974    2.1003624224    0.1375241989
N       -1.4794318364    1.9735231448    0.2142608799
C       -0.9578311893    0.7670179259    0.4535818989
C       -1.7636733425   -0.3738173009    0.6279375461
N        0.4348957828    0.7521296052    0.5121598815
C        1.3274456101   -0.2636800446    0.7088451145
O        1.0325644758   -1.4309981106    0.8704776456
C        2.7562438665    0.2124231988    0.6633903969
C        3.8776757422   -0.7762413636    0.4177412183
C        3.4910172084    0.2104106402   -0.6623904123
C        2.8300298612   -0.2603323468   -1.9521318182
H        2.9648163218    1.0561791645    1.3147556574
H        4.1697528881    1.0439898653   -0.8310238355
H       -4.7532239743    1.1677465055    0.2291396244
H       -3.1987892803    3.1001308925   -0.0583705423
H       -1.3223327725   -1.3416029774    0.8246249386
H        0.8202471579    1.6653663601    0.3629246066
H        4.8159419898   -0.6197937983    0.9438040757
H        3.6068903986   -1.8205682925    0.2746713326
H        2.1814366874   -1.1289189359   -1.7846881821
H        2.2189830552    0.5375408464   -2.3905939359
H        3.5869890489   -0.5498836521   -2.6903936839
C       -4.0675719358   -1.4605269734    0.7342821181
H       -4.5553178370   -1.4311487619    1.7155420648
H       -4.8515715620   -1.4817679955   -0.0314970545
H       -3.5101229909   -2.4017956342    0.6649164479
28   
Iteration 6 Energy -0.18365095
C       -3.1586923587   -0.2539117695    0.5504388205
C       -3.6955186128    1.0125452544    0.2959397352
C       -2.8205464299    2.0929112767    0.1333013233
N       -1.4843632414    1.9729379019    0.2101838049
C       -0.9556032444    0.7703270001    0.4529917133
C       -1.7635341405   -0.3688056800    0.6301378465
N        0.4370791785    0.7587869532    0.5121598681
C        1.3252851549   -0.2609209529    0.7073155741
O        1.0272797190   -1.4276718685    0.8662324240
C        2.7558816888    0.2102108746    0.6637736937
C        3.8720360285   -0.7847946267    0.4164581026
C        3.4934494812    0.2091370309   -0.6603389641
C        2.8345165705   -0.2546364280   -1.9542260906
H        2.9685610557    1.0494248538    1.3194794471
H        4.1794444467    1.0374534037   -0.8254489345
H       -4.7671856327    1.1645387488    0.2251815396
H       -3.2033851408    3.0924804548   -0.0659614646
H       -1.3246225940   -1.3368720775    0.8301754902
H        0.8230932942    1.6717133807    0.3643144148
H        4.8106501027   -0.6340766854    0.9436899015
H        3.5991048038   -1.8281525545    0.2698819311
H        2.1821039252   -1.1216600601   -1.7932982736
H        2.2278611836    0.5473374942   -2.3913444356
H        3.5929025772   -0.5436515883   -2.6912912872
C       -4.0616987455   -1.4594502387    0.7397721774
H       -4.5487444853   -1.4297829281    1.7213461249
H       -4.8458703205   -1.4870486274   -0.0256832149
H       -3.4994825978   -2.3981602156    0.6724284808
28   
Iteration 7 Energy -0.18367637
C       -3.1574538620   -0.2574013414    0.5533898388
C       -3.6914165338    1.0097352253    0.2942202369
C       -2.8205699510    2.0937501110    0.1265106153
N       -1.4835273024    1.9786916179    0.2026950937
C       -0.9577588804    0.7759887269    0.4505661771
C       -1.7609051964   -0.3659703456    0.6333485255
N        0.4343046061    0.7620929398    0.5116989560
C        1.3221959591   -0.2572436328    0.7057387709
O        1.0224552760   -1.4235853987    0.8625667544
C        2.7540375253    0.2116814954    0.6643364068
C        3.8626375995   -0.7931350166    0.4138336386
C        3.4945754392    0.2121501091   -0.6574112590
C        2.8387211820   -0.2482078365   -1.9553374870
H        2.9706505644    1.0457892280    1.3249280888
H        4.1876708418    1.0350861540   -0.8196581930
H       -4.7630501749    1.1609990725    0.2233499846
H       -3.2076201553    3.0910485935   -0.0760070013
H       -1.3194278620   -1.3319660222    0.8383633702
H        0.8211927121    1.6741067100    0.3649319021
H        4.8019461506   -0.6519485653    0.9427326147
H        3.5842762505   -1.8343251574    0.2611603501
H        2.1837590997   -1.1144730489   -1.7996405630
H        2.2355189686    0.5563217335   -2.3925913796
H        3.5992345859   -0.5369972000   -2.6904126908
C       -4.0606516848   -1.4636760350    0.7459952324
H       -4.5478002461   -1.4316622271    1.7273957096
H       -4.8443392851   -1.4936625434   -0.0200043492
H       -3.4986539418   -2.4029791152    0.6809103843
28   
Iteration 8 Energy -0.18369212
C       -3.1592663131   -0.2570954361    0.5545262032
C       -3.6904769373    1.0100192716    0.2903706079
C       -2.8182511781    2.0920012660    0.1201933747
N       -1.4818391243    1.9740184220    0.1986106586
C       -0.9578680566    0.7713425775    0.4504755405
C       -1.7634414305   -0.3681729994    0.6362986927
N        0.4342875597    0.7565447075    0.5132192096
C        1.3223732800   -0.2635992925    0.7038867619
O        1.0231467677   -1.4307726969    0.8565003447
C        2.7535134767    0.2068024725    0.6651927585
C        3.8673001693   -0.7908169012    0.4133150514
C        3.4943651599    0.2130851882   -0.6567262412
C        2.8387392776   -0.2430537898   -1.9555879647
H        2.9671600220    1.0390250258    1.3292586720
H        4.1864267286    1.0373852975   -0.8165081033
H       -4.7618674329    1.1625486346    0.2176536399
H       -3.2030924078    3.0893812099   -0.0860748094
H       -1.3230488414   -1.3338383278    0.8451298991
H        0.8215767083    1.6690651047    0.3685040424
H        4.8060340950   -0.6463748953    0.9422513055
H        3.5941757787   -1.8325695912    0.2555776302
H        2.1866761263   -1.1118613574   -1.8023867170
H        2.2323802037    0.5614134734   -2.3885407396
H        3.5991413117   -0.5261711663   -2.6929280923
C       -4.0644125414   -1.4607018989    0.7505356325
H       -4.5518754691   -1.4246904530    1.7316640764
H       -4.8479735651   -1.4917471008   -0.0154884715
H       -3.5038816846   -2.4009585972    0.6886867403
28   
Iteration 9 Energy -0.18370457
C       -3.1602434520   -0.2571906411    0.5574909620
C       -3.6898474628    1.0078472767    0.2811267650
C       -2.8165827004    2.0875981143    0.1041522373
N       -1.4807384550    1.9674015545    0.1872933114
C       -0.9571635709    0.7666966952    0.4495066870
C       -1.7650720331   -0.3697072285    0.6435158379
N        0.4349333671    0.7524654980    0.5163233139
C        1.3223174164   -0.2696068181    0.7009146025
O        1.0229308108   -1.4380261386    0.8438737975
C        2.7533072214    0.2009160822    0.6674639772
C        3.8660756475   -0.7955405567    0.4092922633
C        3.4955396808    0.2164218064   -0.6536500965
C        2.8398064006   -0.2286030042   -1.9559264738
H        2.9672093776    1.0262929942    1.3400096912
H        4.1918547468    1.0384177654   -0.8067608900
H       -4.7609958413    1.1603608958    0.2044543386
H       -3.1994192494    3.0838000063   -0.1113264086
H       -1.3262914003   -1.3338792971    0.8622667493
H        0.8225924277    1.6656197706    0.3755138992
H        4.8049279951   -0.6561108954    0.9393247415
H        3.5929745916   -1.8356758003    0.2414155014
H        2.1884985658   -1.0991147482   -1.8095806371
H        2.2324247278    0.5790391349   -2.3814626789
H        3.5999326503   -0.5046147422   -2.6962136169
C       -4.0668303995   -1.4578791315    0.7621224807
H       -4.5551420117   -1.4135437192    1.7424979650
H       -4.8498010564   -1.4940861829   -0.0042477855
H       -3.5071963368   -2.3990906736    0.7082191369
28   
Iteration 10 Energy -0.18372235
C       -3.1622290337   -0.2573111188    0.5622899284
C       -3.6896939884    1.0048273735    0.2690817361
C       -2.8139649094    2.0807918555    0.0821417493
N       -1.4786072725    1.9598054570    0.1706693795
C       -0.9573780233    0.7613569157    0.4474808969
C       -1.7675988446   -0.3711737612    0.6537444765
N        0.4344220930    0.7461271775    0.5200490806
C        1.3210209432   -0.2782499330    0.6954982438
O        1.0196424368   -1.4477799264    0.8250068894
C        2.7523577499    0.1915508444    0.6700208005
C        3.8648973517   -0.8027386587    0.4037407269
C        3.4978800659    0.2208368929   -0.6491097814
C        2.8440260358   -0.2083321977   -1.9575223275
H        2.9657222585    1.0077838129    1.3538124317
H        4.1985341736    1.0410130489   -0.7918535523
H       -4.7604026031    1.1579123939    0.1874603579
H       -3.1945385494    3.0750393570   -0.1459979432
H       -1.3307781761   -1.3329458144    0.8866148063
H        0.8230942638    1.6597353609    0.3847258214
H        4.8031094278   -0.6694614475    0.9364845950
H        3.5927751522   -1.8409337130    0.2228204969
H        2.1942225714   -1.0818618197   -1.8229918057
H        2.2352978315    0.6035972126   -2.3728564259
H        3.6051582598   -0.4731553093   -2.7008493036
C       -4.0709052400   -1.4540535035    0.7793279752
H       -4.5600604189   -1.3980501728    1.7586863025
H       -4.8533014246   -1.4974606219    0.0127516205
H       -3.5127004756   -2.3966618254    0.7363823988
28   
Iteration 11 Energy -0.18375219
C       -3.1643644808   -0.2576069404    0.5691498502
C       -3.6893027675    0.9999260524    0.2521253021
C       -2.8102541387    2.0706878205    0.0508860974
N       -1.4753647694    1.9502035734    0.1466134753
C       -0.9575170776    0.7552932701    0.4442391627
C       -1.7702303972   -0.3720751141    0.6681732121
N        0.4336999345    0.7384988551    0.5252394774
C        1.3181907841   -0.2897267462    0.6874705633
O        1.0140052208   -1.4605486870    0.7976401874
C        2.7504679743    0.1780109427    0.6734897183
C        3.8618608779   -0.8143696591    0.3954218278
C        3.5010449705    0.2267745649   -0.6423172000
C        2.8501784882   -0.1794054324   -1.9596558682
H        2.9633159383    0.9813227237    1.3725268732
H        4.2071122951    1.0448230615   -0.7697455359
H       -4.7593897880    1.1534561712    0.1636737063
H       -3.1883515042    3.0616128515   -0.1951301668
H       -1.3357266772   -1.3298535922    0.9212184575
H        0.8242640001    1.6523399082    0.3976626945
H        4.7989289957   -0.6910213409    0.9325955156
H        3.5896989921   -1.8493491806    0.1968797602
H        2.2020007972   -1.0566942930   -1.8427094373
H        2.2402092958    0.6387918985   -2.3606391879
H        3.6130409734   -0.4286338607   -2.7066025011
C       -4.0755251309   -1.4491047111    0.8039195269
H       -4.5658496815   -1.3766731737    1.7816057895
H       -4.8571517705   -1.5031491627    0.0372165437
H       -3.5189896807   -2.3933221231    0.7766616700
28   
Iteration 12 Energy -0.18366387
C       -3.1539937568   -0.2608232719    0.5710180125
C       -3.6832811759    0.9930050539    0.2461971864
C       -2.8146626607    2.0714857961    0.0392667722
N       -1.4790301454    1.9603092507    0.1373132738
C       -0.9556861261    0.7696563790    0.4420423006
C       -1.7589265642   -0.3630268010    0.6721229340
N        0.4350207510    0.7595297434    0.5265952940
C        1.3087314628   -0.2782513867    0.6842748469
O        0.9904923158   -1.4460923252    0.7857028800
C        2.7462976989    0.1732096735    0.6762716366
C        3.8438531474   -0.8333560714    0.3925140846
C        3.4994935078    0.2211093161   -0.6377138866
C        2.8463621641   -0.1700034284   -1.9586691376
H        2.9680763198    0.9698891251    1.3800812734
H        4.2142988497    1.0325279879   -0.7586623408
H       -4.7542719261    1.1387139033    0.1556875543
H       -3.2007895278    3.0578728724   -0.2124506730
H       -1.3156361693   -1.3152240863    0.9316277668
H        0.8282265898    1.6726721106    0.4028997528
H        4.7812601809   -0.7276382679    0.9328674156
H        3.5561189175   -1.8627342966    0.1868531905
H        2.1886956331   -1.0410701120   -1.8481235989
H        2.2459337609    0.6571941999   -2.3555789284
H        3.6077560580   -0.4228645180   -2.7059078495
C       -4.0585274454   -1.4566630189    0.8109695072
H       -4.5501962873   -1.3822373835    1.7878245241
H       -4.8389995337   -1.5191173601    0.0437097700
H       -3.4966143857   -2.3978654344    0.7888759481
28   
Iteration 13 Energy -0.18372861
C       -3.1583567841   -0.2593407969    0.5692618895
C       -3.6862244535    0.9968163671    0.2512492769
C       -2.8134445871    2.0727042147    0.0487306203
N       -1.4779997193    1.9576749914    0.1445028109
C       -0.9567021192    0.7645396231    0.4429707645
C       -1.7635281263   -0.3666482573    0.6680343019
N        0.4342337793    0.7512226117    0.5246070605
C        1.3128344008   -0.2818775324    0.6862434591
O        1.0007611863   -1.4507975815    0.7942313523
C        2.7480914995    0.1767627182    0.6744912404
C        3.8525875521   -0.8233565670    0.3956304491
C        3.4998668587    0.2223968450   -0.6405280373
C        2.8472134433   -0.1779028566   -1.9589087440
H        2.9657385596    0.9777644641    1.3746827876
H        4.2110946716    1.0361986358   -0.7664367204
H       -4.7569224100    1.1459070657    0.1627485961
H       -3.1965462397    3.0615496910   -0.1979119218
H       -1.3235399026   -1.3218679547    0.9217952693
H        0.8262343062    1.6645181523    0.3980855131
H        4.7900239475   -0.7077281402    0.9338935509
H        3.5728596154   -1.8559726187    0.1952466899
H        2.1934049954   -1.0512347149   -1.8435279759
H        2.2427550584    0.6447262831   -2.3591785206
H        3.6089617788   -0.4310112517   -2.7056981989
C       -4.0653181702   -1.4541179617    0.8047943474
H       -4.5558952273   -1.3828580364    1.7824357248
H       -4.8467085190   -1.5114381586    0.0380742917
H       -3.5054737263   -2.3964215655    0.7780896355
28   
Iteration 14 Energy -0.18375122
C       -3.1613448533   -0.2584825446    0.5691582977
C       -3.6877760452    0.9984233368    0.2518405345
C       -2.8118751872    2.0718261253    0.0500608025
N       -1.4766816611    1.9541226160    0.1457162776
C       -0.9571360674    0.7600557616    0.4435726151
C       -1.7668244522   -0.3692825659    0.6679450375
N        0.4338998004    0.7448818198    0.5248187329
C        1.3154577574   -0.2857153197    0.6868609585
O        1.0072899433   -1.4555617984    0.7960909164
C        2.7492425987    0.1774494354    0.6739460856
C        3.8572747047   -0.8187793071    0.3956654673
C        3.5004274668    0.2244992663   -0.6414609154
C        2.8486476673   -0.1788681192   -1.9592858847
H        2.9644744743    0.9796774677    1.3734870628
H        4.2091182667    1.0403789701   -0.7682248689
H       -4.7581761505    1.1497302666    0.1634390805
H       -3.1925263112    3.0617340246   -0.1961130614
H       -1.3295015230   -1.3258132059    0.9211730566
H        0.8251999101    1.6584234742    0.3977186674
H        4.7945372154   -0.6991498549    0.9333509528
H        3.5814354748   -1.8526394210    0.1963323245
H        2.1976173857   -1.0541474876   -1.8430257994
H        2.2414564061    0.6415258706   -2.3600027291
H        3.6109478724   -0.4301445173   -2.7061267376
C       -4.0703633873   -1.4516973746    0.8041962111
H       -4.5607731518   -1.3799942465    1.7818908211
H       -4.8519088959   -1.5073074986    0.0375139523
H       -3.5121375860   -2.3949375006    0.7770716553
28   
Iteration 15 Energy -0.18375655
C       -3.1627199910   -0.2584788290    0.5692676837
C       -3.6874955679    0.9989968760    0.2515153431
C       -2.8105222054    2.0715285394    0.0495829545
N       -1.4754435561    1.9524094159    0.1455111526
C       -0.9571835632    0.7578627184    0.4437557146
C       -1.7682742117   -0.3705275863    0.6682927917
N        0.4338961984    0.7414537148    0.5252449834
C        1.3167231915   -0.2881327177    0.6871591455
O        1.0116813689   -1.4587644664    0.7964614095
C        2.7496735704    0.1776242383    0.6739638188
C        3.8592579075   -0.8168599766    0.3953029073
C        3.5003534239    0.2260130301   -0.6416179063
C        2.8488543436   -0.1785405489   -1.9592638216
H        2.9637043991    0.9802484636    1.3734118972
H        4.2074848419    1.0432055798   -0.7686288158
H       -4.7577047708    1.1514780628    0.1628754781
H       -3.1901354124    3.0617567422   -0.1969058589
H       -1.3321611744   -1.3274895706    0.9218978682
H        0.8250700362    1.6550174623    0.3981429779
H        4.7964634542   -0.6957758433    0.9327670172
H        3.5849651123   -1.8511397127    0.1959927322
H        2.1994563982   -1.0550114126   -1.8427937728
H        2.2400515440    0.6407611442   -2.3597733635
H        3.6113675287   -0.4284335019   -2.7063548749
C       -4.0731411183   -1.4506674982    0.8044570633
H       -4.5636334147   -1.3781773177    1.7820504967
H       -4.8546076940   -1.5055943607    0.0376409117
H       -3.5159789667   -2.3945549716    0.7776535828
28   
Iteration 16 Energy -0.18376286
C       -3.1632797805   -0.2581323203    0.5700365056
C       -3.6883753794    0.9984593530    0.2493093670
C       -2.8101720434    2.0697792120    0.0457832220
N       -1.4750810208    1.9508436077    0.1426277641
C       -0.9570138382    0.7568877740    0.4435391910
C       -1.7688767305   -0.3705555778    0.6701974808
N        0.4339727981    0.7399861772    0.5262684742
C        1.3172968297   -0.2894166220    0.6864206958
O        1.0118576460   -1.4601606452    0.7931426529
C        2.7503091586    0.1763686755    0.6745838017
C        3.8591925064   -0.8185770344    0.3937246390
C        3.5010861659    0.2271583087   -0.6407370899
C        2.8498358859   -0.1751287119   -1.9593173699
H        2.9644430755    0.9779210409    1.3752145042
H        4.2075801001    1.0451449776   -0.7661565951
H       -4.7584749477    1.1511228345    0.1597597995
H       -3.1891677934    3.0596819590   -0.2029550281
H       -1.3335839451   -1.3271909359    0.9264767608
H        0.8251691154    1.6536389442    0.4002279922
H        4.7962380949   -0.6994984310    0.9319183147
H        3.5836325884   -1.8521286304    0.1923561270
H        2.2008757612   -1.0521773523   -1.8446722918
H        2.2407350960    0.6447111464   -2.3582756468
H        3.6125582128   -0.4232088109   -2.7068050084
C       -4.0739666900   -1.4498443512    0.8073630233
H       -4.5647638503   -1.3753632066    1.7846502608
H       -4.8551253460   -1.5062539007    0.0403341207
H       -3.5169000161   -2.3938598323    0.7825938515
28   
Iteration 17 Energy -0.18377145
C       -3.1633296138   -0.2584279553    0.5713561970
C       -3.6871976975    0.9975292184    0.2461490264
C       -2.8090835087    2.0685230063    0.0398323064
N       -1.4740678299    1.9490711269    0.1382335274
C       -0.9569245252    0.7557204264    0.4430959958
C       -1.7689786927   -0.3709157734    0.6730717643
N        0.4338852405    0.7382042856    0.5276411553
C        1.3168541460   -0.2918377735    0.6851363110
O        1.0117130022   -1.4629734668    0.7880819322
C        2.7499891903    0.1738804629    0.6754665703
C        3.8586765711   -0.8208381212    0.3917839886
C        3.5012250344    0.2285221345   -0.6393675115
C        2.8507582731   -0.1700738739   -1.9596103770
H        2.9638534418    0.9739210015    1.3778841088
H        4.2065300807    1.0479283078   -0.7621419155
H       -4.7571770647    1.1502043042    0.1552921336
H       -3.1877576580    3.0577099455   -0.2122228817
H       -1.3341816376   -1.3267574076    0.9332540745
H        0.8255527615    1.6518263381    0.4032680002
H        4.7952767632   -0.7039209635    0.9312235364
H        3.5821327139   -1.8535528161    0.1874382009
H        2.2025746211   -1.0481222930   -1.8481489505
H        2.2411483840    0.6505690422   -2.3561408230
H        3.6140179679   -0.4150552737   -2.7075778707
C       -4.0749927577   -1.4489739518    0.8117349310
H       -4.5663050895   -1.3713121882    1.7885117135
H       -4.8556589078   -1.5072005989    0.0443325511
H       -3.5185315705   -2.3934394830    0.7900317869
28   
Iteration 18 Energy -0.18378333
C       -3.1638025279   -0.2584327937    0.5732526424
C       -3.6868377073    0.9961898572    0.2416574818
C       -2.8079980343    2.0659160251    0.0315845452
N       -1.4730665981    1.9466529726    0.1320297960
C       -0.9565003329    0.7544981397    0.4424719216
C       -1.7695454910   -0.3704711555    0.6770288977
N        0.4341307389    0.7365738214    0.5294929989
C        1.3157339178   -0.2952253076    0.6829225865
O        1.0100018257   -1.4666783584    0.7802631770
C        2.7493049457    0.1694503997    0.6765070518
C        3.8582128698   -0.8242284825    0.3893078771
C        3.5016319648    0.2296413886   -0.6375177781
C        2.8524996109   -0.1628190319   -1.9603455389
H        2.9627429837    0.9671541907    1.3816930798
H        4.2056105494    1.0508163801   -0.7559581504
H       -4.7566481322    1.1488921603    0.1488958210
H       -3.1860879763    3.0540986056   -0.2252419085
H       -1.3353556943   -1.3250999813    0.9427084981
H        0.8266775595    1.6501294672    0.4076028856
H        4.7940198241   -0.7098900707    0.9306585925
H        3.5809918291   -1.8559298962    0.1807742973
H        2.2050076304   -1.0420050004   -1.8538883806
H        2.2425561539    0.6593354141   -2.3532212880
H        3.6165736054   -0.4033794431   -2.7089173039
C       -4.0760113250   -1.4477231142    0.8181987668
H       -4.5679435359   -1.3657416528    1.7943085169
H       -4.8561130857   -1.5090967761    0.0504660379
H       -3.5197839310   -2.3924200508    0.8008743323
28   
Iteration 19 Energy -0.18380027
C       -3.1642223786   -0.2585191953    0.5759063484
C       -3.6859847659    0.9941810398    0.2352239343
C       -2.8063327566    2.0621409487    0.0198253876
N       -1.4716560731    1.9426850015    0.1233348264
C       -0.9563800595    0.7520689591    0.4417072358
C       -1.7702665945   -0.3708658292    0.6828296979
N        0.4340282288    0.7338650283    0.5321820188
C        1.3145772071   -0.2996923920    0.6798024252
O        1.0068510814   -1.4712863135    0.7690252859