28
Properties=species:S:1:pos:R:3 Iteration=T 43=T Energy=T -611.64891416=T pbc="F F F"
C       -3.18279310       0.25377453       0.70917077
C       -3.97971503      -0.28541876      -0.30605963
C       -3.35884401      -0.92255201      -1.36982019
N       -2.03847661      -1.05718329      -1.48918761
C       -1.28444618      -0.53953232      -0.51711454
C       -1.80250875       0.12635797       0.59908523
N        0.07944353      -0.73124552      -0.73469397
C        1.14841910      -0.35062460       0.03994564
O        1.03259031       0.28168118       1.07736464
C        2.45449052      -0.75642058      -0.57193814
C        3.20312050       0.28923398      -1.38271232
C        3.78801207      -0.23043948      -0.10985115
C        3.97232125       0.65897790       1.09375218
H        2.45427304      -1.75960902      -0.99461074
H        4.58819148      -0.95742899      -0.24236879
H       -5.06239714      -0.20767756      -0.26764363
H       -3.95018735      -1.35082179      -2.17737370
H       -1.12813348       0.52642918       1.34492273
H        0.26513045      -1.21851285      -1.60152505
H        3.62383923      -0.00867045      -2.33874352
H        2.79523579       1.29683946      -1.36063088
H        3.18337131       1.40825808       1.16651415
H        3.95284365       0.07588947       2.01988891
H        4.94089519       1.16777223       1.02830890
C       -3.79788946       0.94152222       1.89240438
H       -4.53979485       1.68348010       1.57784288
H       -4.31561579       0.21882169       2.53449366
H       -3.04137715       1.44730120       2.49818666
