28   
Iteration 0 Energy -0.16834452
C       -3.1515893100   -0.0705156100    0.6982627600
C       -3.5314862200    0.8251325100   -0.3069203000
C       -2.5447623300    1.3911750100   -1.0999820400
N       -1.2443003500    1.1325709700   -0.9675697200
C       -0.8893861300    0.2758784600   -0.0068109600
C       -1.7982805500   -0.3516801300    0.8514387600
N        0.4892591000    0.0718922200    0.0407302900
C        1.2161901800   -0.7213927500    0.8894940200
O        0.7175976200   -1.3613080100    1.8024265600
C        2.6900406900   -0.7992484200    0.6453786500
C        3.2391438400   -1.3418051100   -0.6607774200
C        3.5763617500    0.0514719700   -0.2449220300
C        3.1502759200    1.2576778000   -1.0512204300
H        3.1712324400   -1.1824714100    1.5395996200
H        4.5659832600    0.1720690700    0.1920518200
H       -4.5762733000    1.0746511700   -0.4679127800
H       -2.8070923400    2.0913260800   -1.8913641100
H       -1.4327516700   -1.0322411900    1.6090284400
H        0.9761384600    0.6314600200   -0.6436536300
H        3.9874974500   -2.1270282100   -0.6127066200
H        2.5249753900   -1.4503358400   -1.4743271700
H        2.3816654900    1.0250490700   -1.7977613500
H        2.7880946900    2.0754026600   -0.4178590100
H        4.0074466300    1.6359319400   -1.6177752100
C       -4.1728177400   -0.7003188200    1.5996346000
H       -4.5660877700    0.0349344500    2.3120096500
H       -5.0236796700   -1.0823227000    1.0257650800
H       -3.7433961900   -1.5257542700    2.1733435700
28   
Iteration 1 Energy -0.17090685
C       -3.1649794640   -0.0563178363    0.6886218301
C       -3.4899076906    0.8425550774   -0.3317820471
C       -2.4625241200    1.3767425706   -1.0966976178
N       -1.1731821983    1.0821371676   -0.9204368953
C       -0.8600668901    0.2224067500    0.0535559701
C       -1.8226753188   -0.3711323892    0.8829637772
N        0.5158305710   -0.0085817911    0.1329778294
C        1.2884381136   -0.7857946007    0.9582265281
O        0.8716490768   -1.4505605387    1.8915862081
C        2.7528928011   -0.8085765493    0.6449501151
C        3.2539507994   -1.3249205965   -0.6906534892
C        3.5580947285    0.0812628295   -0.2827561099
C        3.0425377153    1.2738821471   -1.0588689865
H        3.2936382880   -1.1763509600    1.5114374358
H        4.5632643543    0.2411460710    0.1031340348
H       -4.5217232431    1.1193782037   -0.5267711019
H       -2.6800342073    2.0789605473   -1.8997613313
H       -1.5108891320   -1.0573656986    1.6573615051
H        0.9990846146    0.5497883215   -0.5529840110
H        4.0334491222   -2.0811377893   -0.6862491599
H        2.5036755962   -1.4574334903   -1.4673179780
H        2.2460650097    1.0127677035   -1.7657540409
H        2.6810444700    2.0727414238   -0.4012882822
H        3.8531303029    1.6898623424   -1.6665113131
C       -4.2306249065   -0.6545024320    1.5627575154
H       -4.6255775998    0.0950049663    2.2590530644
H       -5.0734350650   -1.0176843089    0.9649799400
H       -3.8411263966   -1.4880762190    2.1538276495
28   
Iteration 2 Energy -0.17179583
C       -3.1292640140   -0.0390904276    0.6811215048
C       -3.4326908043    0.8575382167   -0.3482847249
C       -2.4114180513    1.3897389433   -1.1389239119
N       -1.1207614514    1.0731795762   -0.9539199943
C       -0.7865921272    0.2204918452    0.0207448480
C       -1.7741832950   -0.3462362011    0.8483697797
N        0.5820012110   -0.0327752132    0.1123782727
C        1.3160952739   -0.8182405820    0.9577471625
O        0.8214052671   -1.4534596008    1.8677450326
C        2.7990569721   -0.8618151827    0.6752078607
C        3.2555070840   -1.3391874319   -0.6891759518
C        3.5146661575    0.0884129844   -0.2678518167
C        2.8795421139    1.2612816148   -1.0011329292
H        3.3821152331   -1.2177912166    1.5202126527
H        4.5260499132    0.3224401478    0.0595111162
H       -4.4606938139    1.1453815381   -0.5408969132
H       -2.6313314308    2.0880370624   -1.9448088299
H       -1.4906318670   -1.0326884653    1.6335014456
H        1.0954755069    0.4945393344   -0.5671400408
H        4.0685064842   -2.0601972469   -0.7316908595
H        2.4814467828   -1.4907196230   -1.4386149078
H        2.0576242508    0.9495394484   -1.6566603006
H        2.5069663399    2.0179995272   -0.3000993074
H        3.6211957351    1.7454635012   -1.6475534172
C       -4.2048291467   -0.6287672572    1.5683854049
H       -4.5903080804    0.1266626519    2.2629420506
H       -5.0501940266   -0.9923827568    0.9727909034
H       -3.8247571014   -1.4671541528    2.1636967354
28   
Iteration 3 Energy -0.17391169
C       -3.1519193127   -0.0450693239    0.6891209086
C       -3.4740412049    0.8521697040   -0.3345212782
C       -2.4574664875    1.3906758370   -1.1295281315
N       -1.1629881548    1.0802222143   -0.9532561919
C       -0.8201003176    0.2269241360    0.0175190282
C       -1.7947481359   -0.3508332217    0.8536728794
N        0.5498747702   -0.0189608038    0.0997517548
C        1.2981055356   -0.7997430686    0.9344668705
O        0.7933611798   -1.4313824515    1.8401630885
C        2.7911101398   -0.8542230136    0.6693981885
C        3.2713195982   -1.3417296714   -0.6848807815
C        3.5521542443    0.0818757904   -0.2640984959
C        2.9699102885    1.2698617896   -1.0227293069
H        3.3519774279   -1.2165151514    1.5265412801
H        4.5597555968    0.2964308003    0.0873440617
H       -4.5050604512    1.1341842009   -0.5187067661
H       -2.6851262691    2.0898826997   -1.9324702632
H       -1.5057838053   -1.0381696458    1.6362235984
H        1.0532223707    0.5118577983   -0.5807764403
H        4.0753323955   -2.0738979869   -0.7006245942
H        2.5151024135   -1.4891513815   -1.4532328075
H        2.1608400874    0.9805721462   -1.7034416865
H        2.5980849537    2.0397567390   -0.3355443025
H        3.7442399582    1.7302854211   -1.6480881781
C       -4.2206895444   -0.6428555618    1.5818760614
H       -4.6057460045    0.1088356025    2.2806363469
H       -5.0673920433   -1.0095221027    0.9899162330
H       -3.8333301682   -1.4812804674    2.1728697971
28   
Iteration 4 Energy -0.17348478
C       -3.1286322654   -0.0359441902    0.6867223410
C       -3.4860150913    0.8542143188   -0.3327639527
C       -2.4669362418    1.3731413363   -1.1398662253
N       -1.1690183373    1.0633023472   -0.9860623148
C       -0.8367597603    0.2160588370   -0.0079828464
C       -1.7768692533   -0.3674985370    0.8621155015
N        0.5316396287   -0.0356459849    0.0622433526
C        1.2454762188   -0.8242706059    0.9182722137
O        0.8078569871   -1.4783195760    1.8414361243
C        2.7463069661   -0.8518094968    0.6660925675
C        3.2498592449   -1.3245147893   -0.6879238743
C        3.5414113103    0.0885323700   -0.2440763904
C        2.9917791825    1.2898061733   -1.0119022660
H        3.2930897647   -1.2229462419    1.5279402788
H        4.5461003350    0.2943810116    0.1205107552
H       -4.5190544839    1.1392030981   -0.5002702916
H       -2.6999695643    2.0676463750   -1.9453216380
H       -1.4795565499   -1.0510464845    1.6461409502
H        1.0462679566    0.4721454690   -0.6263876482
H        4.0655758124   -2.0436260505   -0.6868034087
H        2.5140309188   -1.4917444549   -1.4719006768
H        2.1939132537    1.0156722282   -1.7115830980
H        2.6136474286    2.0585713700   -0.3268363434
H        3.7864124892    1.7460203856   -1.6143975615
C       -4.1934657713   -0.6249409747    1.5934717869
H       -4.5677629451    0.1305464760    2.2939692038
H       -5.0457202915   -0.9931085800    1.0105949234
H       -3.8036080613   -1.4636248008    2.1821690623
28   
Iteration 5 Energy -0.17475032
C       -3.1528292687   -0.0381645115    0.6965558723
C       -3.4859799321    0.8510724257   -0.3314311262
C       -2.4701871173    1.3691288304   -1.1458020066
N       -1.1720407186    1.0552265491   -0.9899853078
C       -0.8326774219    0.2111866051   -0.0112971328
C       -1.7938287729   -0.3541989825    0.8488361171
N        0.5328844491   -0.0503913759    0.0688554923
C        1.2662158818   -0.8310100089    0.9150715706
O        0.7883411753   -1.4705480170    1.8277887154
C        2.7682022134   -0.8523476725    0.6652835695
C        3.2605867416   -1.3216925509   -0.6937233507
C        3.5583064095    0.0910419840   -0.2423950734
C        3.0046559887    1.2932597699   -1.0080158522
H        3.3212995808   -1.2263586140    1.5221497908
H        4.5653530581    0.3004921079    0.1135157499
H       -4.5162625497    1.1423258875   -0.5042049043
H       -2.7047627163    2.0614562257   -1.9526919369
H       -1.5015526002   -1.0364047355    1.6361603221
H        1.0470846666    0.4522749781   -0.6239500268
H        4.0782291463   -2.0389587780   -0.7025948033
H        2.5203864540   -1.4855827590   -1.4741953452
H        2.2052182993    1.0171547597   -1.7053353695
H        2.6267867252    2.0583907640   -0.3186426146
H        3.7966568937    1.7541171907   -1.6107883366
C       -4.2185315099   -0.6248155523    1.6075172580
H       -4.5907118407    0.1322490194    2.3073605781
H       -5.0711844592   -0.9950220702    1.0262508958
H       -3.8296600288   -1.4636804379    2.1973076739
28   
Iteration 6 Energy -0.17470414
C       -3.1457869269   -0.0322897410    0.6928733577
C       -3.4810407830    0.8555854254   -0.3350430350
C       -2.4599432509    1.3673834144   -1.1441648377
N       -1.1664304470    1.0439971131   -0.9770816564
C       -0.8349159166    0.1988855180    0.0033591487
C       -1.7945896259   -0.3654369618    0.8645857402
N        0.5312691067   -0.0630308252    0.0809366348
C        1.2811555885   -0.8391853117    0.9175183898
O        0.7934234727   -1.4783140457    1.8261310365
C        2.7810112636   -0.8592657709    0.6679025672
C        3.2746027639   -1.3191478898   -0.6940067165
C        3.5524833579    0.0952094918   -0.2437876564
C        2.9801772423    1.2879574913   -1.0079640692
H        3.3359274865   -1.2360227316    1.5221944956
H        4.5602948423    0.3135290495    0.1046010759
H       -4.5109169544    1.1480268283   -0.5094940010
H       -2.6844994154    2.0598275129   -1.9537947398
H       -1.5094532610   -1.0480618375    1.6537902110
H        1.0372178815    0.4410122317   -0.6182216955
H        4.0994696014   -2.0274994706   -0.7154826013
H        2.5338169714   -1.4645599744   -1.4775604701
H        2.1851980417    1.0023666798   -1.7063790388
H        2.5908137919    2.0479615063   -0.3195406295
H        3.7656537428    1.7602388124   -1.6100141765
C       -4.2184854216   -0.6107427423    1.5980084950
H       -4.5897232463    0.1491521841    2.2953809018
H       -5.0702715184   -0.9766291273    1.0130554385
H       -3.8364595968   -1.4507460859    2.1897982902
28   
Iteration 7 Energy -0.17483603
C       -3.1497851256   -0.0340341550    0.6951053528
C       -3.4846979304    0.8539509858   -0.3328466661
C       -2.4661308198    1.3678542453   -1.1440627290
N       -1.1708804483    1.0484153240   -0.9822276372
C       -0.8345729083    0.2036472621   -0.0031747251
C       -1.7954991101   -0.3599162122    0.8572801426
N        0.5318750083   -0.0572160702    0.0730468196
C        1.2735425256   -0.8360214858    0.9144564887
O        0.7918312474   -1.4773769438    1.8245529980
C        2.7744156575   -0.8579785337    0.6681458047
C        3.2719243223   -1.3200220700   -0.6918539475
C        3.5539425527    0.0932941677   -0.2408636840
C        2.9912729341    1.2885872350   -1.0088224027
H        3.3253929364   -1.2362627096    1.5242973789
H        4.5612097526    0.3074449683    0.1116620031
H       -4.5149238064    1.1456924429   -0.5062722162
H       -2.6948418315    2.0601547817   -1.9526515407
H       -1.5064579326   -1.0422342207    1.6453169129
H        1.0401061925    0.4454461274   -0.6250697260
H        4.0951597466   -2.0304154047   -0.7090350772
H        2.5346258011   -1.4651269509   -1.4787602431
H        2.1987937132    1.0069067049   -1.7116178907
H        2.6019483602    2.0507617781   -0.3227429009
H        3.7822942641    1.7568767237   -1.6067668462
C       -4.2182061129   -0.6158669134    1.6034532826
H       -4.5891260305    0.1426674696    2.3024643320
H       -5.0708936374   -0.9836915551    1.0209961399
H       -3.8323205333   -1.4553362588    2.1935910214
28   
Iteration 8 Energy -0.17486504
C       -3.1496921953   -0.0341674058    0.6973427295
C       -3.4824282463    0.8525085930   -0.3325463809
C       -2.4664070844    1.3652246986   -1.1485949850
N       -1.1710012875    1.0441803323   -0.9880765219
C       -0.8350863985    0.2011288702   -0.0074205567
C       -1.7945944847   -0.3602172569    0.8565134535
N        0.5307762019   -0.0618243017    0.0688868722
C        1.2692103956   -0.8401970761    0.9132704742
O        0.7900679642   -1.4819524368    1.8241106522
C        2.7709199994   -0.8557578264    0.6679274793
C        3.2666972695   -1.3163614727   -0.6933618935
C        3.5542561103    0.0953225048   -0.2373620250
C        2.9956661535    1.2931488873   -1.0055778086
H        3.3228811459   -1.2379984718    1.5217624497
H        4.5633392181    0.3062943590    0.1118622796
H       -4.5124132134    1.1455286189   -0.5047269224
H       -2.6969337714    2.0562071194   -1.9577980482
H       -1.5054815164   -1.0413347373    1.6456023006
H        1.0408350912    0.4350160617   -0.6316781350
H        4.0929602549   -2.0233495794   -0.7120351660
H        2.5310661377   -1.4687837189   -1.4804284806
H        2.2053250536    1.0128854713   -1.7114458926
H        2.6038622846    2.0532185395   -0.3184933479
H        3.7891260088    1.7634600350   -1.5988621404
C       -4.2187865899   -0.6135254916    1.6077375659
H       -4.5875785876    0.1461840796    2.3065539279
H       -5.0723233596   -0.9810359913    1.0262118597
H       -3.8342636783   -1.4536016331    2.1982268119
28   
Iteration 9 Energy -0.17487075
C       -3.1518026311   -0.0324330925    0.6966797514
C       -3.4889912989    0.8533268207   -0.3325577374
C       -2.4694298625    1.3621909110   -1.1462718165
N       -1.1730819105    1.0436067922   -0.9897793478
C       -0.8345270454    0.2012155532   -0.0095777814
C       -1.7962916722   -0.3574205023    0.8533676026
N        0.5313715759   -0.0620687781    0.0661224345
C        1.2686024421   -0.8402241793    0.9119281147
O        0.7882378699   -1.4817355933    1.8224176850
C        2.7703537270   -0.8555397430    0.6692163055
C        3.2674094040   -1.3157005237   -0.6917615518
C        3.5552435458    0.0952615898   -0.2347287010
C        2.9988478513    1.2927245217   -1.0047914754
H        3.3202094802   -1.2422148288    1.5223805496
H        4.5656244383    0.3036814184    0.1122785140
H       -4.5188533340    1.1467891660   -0.5048693433
H       -2.6996372665    2.0527641821   -1.9559140903
H       -1.5068834009   -1.0381187005    1.6426812996
H        1.0413263212    0.4323831134   -0.6364096661
H        4.0954110095   -2.0205689337   -0.7127121474
H        2.5336891401   -1.4652690760   -1.4811469237
H        2.2131159623    1.0119752207   -1.7156173389
H        2.6012889719    2.0511631083   -0.3192367214
H        3.7949051441    1.7656182879   -1.5924688048
C       -4.2177232842   -0.6130104962    1.6096357974
H       -4.5851690708    0.1459922792    2.3099395094
H       -5.0724996744   -0.9811203616    1.0303502755
H       -3.8307475247   -1.4530674401    2.1984462781
28   
Iteration 10 Energy -0.17488529
C       -3.1511526092   -0.0333774350    0.6974508091
C       -3.4846065714    0.8527776055   -0.3325450621
C       -2.4671382039    1.3639684903   -1.1468448372
N       -1.1716617862    1.0441382873   -0.9875383778
C       -0.8351918916    0.2011367266   -0.0070671379
C       -1.7962541928   -0.3587538317    0.8556260054
N        0.5309831537   -0.0614936601    0.0684777303
C        1.2698045231   -0.8390086724    0.9137406331
O        0.7907489744   -1.4808367963    1.8249051843
C        2.7709750255   -0.8554412580    0.6702693770
C        3.2677591367   -1.3159764653   -0.6905931103
C        3.5538366645    0.0953767508   -0.2355533557
C        2.9959888156    1.2912810036   -1.0063422206
H        3.3202858510   -1.2442142561    1.5227793814
H        4.5651965569    0.3032564831    0.1089298213
H       -4.5145408457    1.1457932922   -0.5054601096
H       -2.6971357011    2.0547560623   -1.9563622528
H       -1.5061168227   -1.0395714197    1.6445126633
H        1.0397895237    0.4335200467   -0.6347370484
H        4.0965327197   -2.0197971297   -0.7141655163
H        2.5338466071   -1.4611407277   -1.4806233823
H        2.2134340518    1.0088885899   -1.7200059718
H        2.5938443528    2.0483307200   -0.3219668642
H        3.7924876337    1.7668510921   -1.5911650764
C       -4.2187299141   -0.6130229314    1.6083538171
H       -4.5861632625    0.1460378396    2.3086247323
H       -5.0733232546   -0.9794691163    1.0278039466
H       -3.8334995827   -1.4538086080    2.1970969034
28   
Iteration 11 Energy -0.17489090
C       -3.1501312292   -0.0335101713    0.6968590916
C       -3.4838511563    0.8530108742   -0.3327851416
C       -2.4664917441    1.3650405803   -1.1469993636
N       -1.1711103944    1.0448311457   -0.9866471760
C       -0.8345769253    0.2016788554   -0.0062603184
C       -1.7953220794   -0.3592552309    0.8563013075
N        0.5315293810   -0.0607855359    0.0697250556
C        1.2705654202   -0.8376465224    0.9153054202
O        0.7907562343   -1.4777912694    1.8271868263
C        2.7718501808   -0.8548260785    0.6708309511
C        3.2662648037   -1.3167547253   -0.6903586766
C        3.5538417641    0.0951296707   -0.2366378146
C        2.9944383909    1.2910424633   -1.0065868710
H        3.3223109303   -1.2439456432    1.5224722948
H        4.5661208995    0.3028776479    0.1052093160
H       -4.5138449780    1.1457333192   -0.5056534641
H       -2.6963062240    2.0560631282   -1.9563700520
H       -1.5060333696   -1.0404037921    1.6452315931
H        1.0405719182    0.4340834364   -0.6332747253
H        4.0955543942   -2.0199989615   -0.7146380028
H        2.5313383138   -1.4647583083   -1.4789201003
H        2.2133259462    1.0073039725   -1.7213694670
H        2.5894762808    2.0459870258   -0.3215093910
H        3.7904743324    1.7695573290   -1.5897028689
C       -4.2183589157   -0.6135280207    1.6070737668
H       -4.5855001538    0.1450845088    2.3079676536
H       -5.0730786898   -0.9788613622    1.0259645994
H       -3.8338143936   -1.4551576572    2.1951862068
28   
Iteration 12 Energy -0.17489591
C       -3.1494127317   -0.0337099870    0.6962743401
C       -3.4829577421    0.8534844041   -0.3329318772
C       -2.4651374749    1.3660841136   -1.1463319061
N       -1.1696316462    1.0463513118   -0.9860087589
C       -0.8338361917    0.2028404633   -0.0056891334
C       -1.7945252795   -0.3592171454    0.8562393374
N        0.5321171212   -0.0598670006    0.0710925837
C        1.2714603847   -0.8354197062    0.9176131312
O        0.7916171111   -1.4731339811    1.8311795330
C        2.7726494234   -0.8535982610    0.6718484901
C        3.2643763173   -1.3178588483   -0.6894486584
C        3.5537859514    0.0946001295   -0.2382590593
C        2.9922717601    1.2901933743   -1.0072106020
H        3.3238627348   -1.2437926643    1.5225151448
H        4.5675278902    0.3016365715    0.0996568410
H       -4.5128906204    1.1461947247   -0.5061167073
H       -2.6948671770    2.0575108385   -1.9553815430
H       -1.5053457579   -1.0408835130    1.6448089583
H        1.0414359295    0.4343589493   -0.6321799303
H        4.0944743141   -2.0201308110   -0.7148887581
H        2.5283057874   -1.4681744367   -1.4765037931
H        2.2156549941    1.0038867494   -1.7259777861
H        2.5800432594    2.0408870221   -0.3217716260
H        3.7884285791    1.7747607934   -1.5851664074
C       -4.2179477985   -0.6145085006    1.6057209960
H       -4.5839522151    0.1430565737    2.3083356612
H       -5.0733905534   -0.9775498654    1.0242241540
H       -3.8341174334   -1.4578005626    2.1919580629
28   
Iteration 13 Energy -0.17489952
C       -3.1489047757   -0.0338323324    0.6955828055
C       -3.4829304367    0.8541301832   -0.3327721125
C       -2.4649663218    1.3674956890   -1.1455748521
N       -1.1694831566    1.0476278962   -0.9849158952
C       -0.8328228202    0.2036605018   -0.0052399350
C       -1.7939974986   -0.3592011083    0.8556804074
N        0.5331936062   -0.0588614865    0.0711463443
C        1.2723241085   -0.8325798068    0.9196152843
O        0.7926852331   -1.4673037523    1.8353453334
C        2.7734488194   -0.8519410709    0.6730260921
C        3.2625214422   -1.3193466339   -0.6880857365
C        3.5542939306    0.0936843930   -0.2401473650
C        2.9911101766    1.2891517515   -1.0080411742
H        3.3249863398   -1.2425835862    1.5232782884
H        4.5693193122    0.2999412628    0.0943745839
H       -4.5129292615    1.1467088838   -0.5057748967
H       -2.6944985963    2.0594762974   -1.9542074275
H       -1.5052995665   -1.0416482924    1.6437403984
H        1.0425249931    0.4342489556   -0.6329794110
H        4.0925252333   -2.0217196727   -0.7141268145
H        2.5250938865   -1.4703891097   -1.4737296445
H        2.2209912216    1.0002557445   -1.7328588288
H        2.5693078091    2.0344440531   -0.3225133719
H        3.7881456014    1.7811837170   -1.5784395891
C       -4.2172978552   -0.6157236785    1.6045458209
H       -4.5812377347    0.1402844163    2.3099032158
H       -5.0740713037   -0.9755785977    1.0230238250
H       -3.8340334332   -1.4613840007    2.1877451760
28   
Iteration 14 Energy -0.17490181
C       -3.1487354190   -0.0340710461    0.6953682146
C       -3.4823485652    0.8547925493   -0.3323620431
C       -2.4641549146    1.3684726471   -1.1446209974
N       -1.1685874144    1.0487400760   -0.9847402134
C       -0.8325738067    0.2040868163   -0.0054935222
C       -1.7937728422   -0.3594438156    0.8548791917
N        0.5333271412   -0.0590406953    0.0708021379
C        1.2728857795   -0.8309717027    0.9205861493
O        0.7939239545   -1.4637565999    1.8380168868
C        2.7739063378   -0.8506963025    0.6734842706
C        3.2617421901   -1.3203732248   -0.6873225304
C        3.5545426323    0.0930831976   -0.2418842027
C        2.9900456454    1.2885317847   -1.0087130053
H        3.3258079814   -1.2395865397    1.5242924303
H        4.5697596966    0.2995579861    0.0919224727
H       -4.5122541135    1.1477682751   -0.5053020986
H       -2.6937319101    2.0610616275   -1.9527188503
H       -1.5047468014   -1.0426638639    1.6421669527
H        1.0425587519    0.4330957744   -0.6341912726
H        4.0908424771   -2.0238282118   -0.7123089459
H        2.5233821856   -1.4720147831   -1.4719757191
H        2.2238807456    0.9983083009   -1.7372278090
H        2.5625099516    2.0303883906   -0.3230097422
H        3.7874759519    1.7852232621   -1.5744829931
C       -4.2170790614   -0.6166175595    1.6039177614
H       -4.5790553825    0.1381273599    2.3116392839
H       -5.0750558961   -0.9735949472    1.0224097116
H       -3.8344963489   -1.4643781665    2.1844688813
28   
Iteration 15 Energy -0.17490326
C       -3.1487533226   -0.0343172929    0.6952203602
C       -3.4822749959    0.8556493668   -0.3315534765
C       -2.4641751919    1.3698459920   -1.1435406273
N       -1.1686711755    1.0495896417   -0.9842526135
C       -0.8325741832    0.2039884211   -0.0058739172
C       -1.7938505963   -0.3601436981    0.8539710745
N        0.5332921385   -0.0596493758    0.0696263204
C        1.2731667688   -0.8296530441    0.9209335283
O        0.7947362617   -1.4608489624    1.8397242958
C        2.7741573874   -0.8493032450    0.6738945607
C        3.2615151209   -1.3211930286   -0.6863859507
C        3.5550011276    0.0926829513   -0.2431506639
C        2.9901212778    1.2880718829   -1.0096913246
H        3.3263332269   -1.2352471379    1.5258618165
H        4.5699414260    0.2996229971    0.0912147832
H       -4.5121470002    1.1490634351   -0.5039886108
H       -2.6937417318    2.0632634760   -1.9509303628
H       -1.5047799360   -1.0443836026    1.6403430934
H        1.0421832117    0.4312137135   -0.6365614691
H        4.0890950646   -2.0264841142   -0.7093995893
H        2.5226810405   -1.4730112349   -1.4705595169
H        2.2262292211    0.9973069002   -1.7403746549
H        2.5595854255    2.0283156505   -0.3241240941
H        3.7879891755    1.7870045257   -1.5728523242
C       -4.2169721838   -0.6176196543    1.6033898487
H       -4.5768365052    0.1357194022    2.3136845333
H       -5.0762015672   -0.9716450629    1.0219352325
H       -3.8350505556   -1.4676383875    2.1810401738
28   
Iteration 16 Energy -0.17490389
C       -3.1488161928   -0.0346867278    0.6950040054
C       -3.4822114316    0.8566722689   -0.3305947217
C       -2.4641437339    1.3717584563   -1.1420287313
N       -1.1687092104    1.0510148216   -0.9831882640
C       -0.8326665003    0.2041927719   -0.0058518084
C       -1.7939862115   -0.3609855129    0.8532426224
N        0.5331522753   -0.0598868825    0.0690708249
C        1.2733312259   -0.8282552375    0.9216023449
O        0.7951571800   -1.4581096959    1.8414470281
C        2.7742964825   -0.8478964668    0.6745964267
C        3.2614738531   -1.3218532916   -0.6850714714
C        3.5552198898    0.0925707885   -0.2438870233
C        2.9903190385    1.2873465963   -1.0113290235
H        3.3267537515   -1.2312731457    1.5275406016
H        4.5700283405    0.2999348970    0.0906196720
H       -4.5120499074    1.1504694123   -0.5025805288
H       -2.6936458335    2.0662278791   -1.9485322508
H       -1.5049981975   -1.0464456406    1.6385754168
H        1.0417713183    0.4299283295   -0.6380363302
H        4.0881079647   -2.0283012116   -0.7063855454
H        2.5226107218   -1.4743353121   -1.4690882017
H        2.2267179162    0.9960494201   -1.7420902623
H        2.5594914012    2.0279774418   -0.3263631795
H        3.7882718394    1.7860756611   -1.5745481445
C       -4.2170813527   -0.6190814764    1.6023937463
H       -4.5754647925    0.1327877137    2.3149909742
H       -5.0771616123   -0.9705596433    1.0206520122
H       -3.8357693221   -1.4711356839    2.1774402955
28   
Iteration 17 Energy -0.17490503
C       -3.1489491270   -0.0357292904    0.6942545836
C       -3.4819857872    0.8593024596   -0.3282572478
C       -2.4637824122    1.3770247427   -1.1378136801
N       -1.1684726543    1.0553957555   -0.9797891480
C       -0.8326752479    0.2054116207   -0.0051145942
C       -1.7942462939   -0.3628790892    0.8516302920
N        0.5330307966   -0.0595397196    0.0688107686
C        1.2738078120   -0.8242622007    0.9241069021
O        0.7961222029   -1.4506158006    1.8466011327
C        2.7746697063   -0.8444107225    0.6767645081
C        3.2611535878   -1.3235564088   -0.6813742364
C        3.5555008480    0.0923577239   -0.2454842157
C        2.9904358141    1.2849909510   -1.0160872966
H        3.3277520164   -1.2228420078    1.5315123135
H        4.5704599593    0.3005658654    0.0880446643
H       -4.5117502179    1.1538572316   -0.4993822210
H       -2.6930288780    2.0742534598   -1.9420061150
H       -1.5055791260   -1.0515039228    1.6343058131
H        1.0412002253    0.4281979600   -0.6400325000
H        4.0864916446   -2.0316066719   -0.6994486654
H        2.5222277202   -1.4782183703   -1.4649018477
H        2.2268523396    0.9917492230   -1.7460718017
H        2.5596280696    2.0274483036   -0.3330861628
H        3.7883224909    1.7822940667   -1.5806604110
C       -4.2174787838   -0.6233024049    1.5992467583
H       -4.5730069268    0.1248201995    2.3171969311
H       -5.0791908813   -0.9689658223    1.0164343612
H       -3.8375101102   -1.4800366934    2.1682014630
28   
Iteration 18 Energy -0.17491066
C       -3.1495824581   -0.0411815744    0.6900679051
C       -3.4806213934    0.8727140836   -0.3162946850
C       -2.4613232750    1.4043604619   -1.1153017907
N       -1.1665416991    1.0788605841   -0.9610758703
C       -0.8322574423    0.2127304856   -0.0001821387
C       -1.7954089574   -0.3720136459    0.8435664303
N        0.5328712952   -0.0563199999    0.0693222811
C        1.2764883637   -0.8029831635    0.9380375262
O        0.8013170653   -1.4108945253    1.8741118891
C        2.7767423721   -0.8266828327    0.6881818776
C        3.2591720238   -1.3322426306   -0.6619331909
C        3.5565053958    0.0911448122   -0.2535247182
C        2.9901072350    1.2717929801   -1.0412614555
H        3.3328478858   -1.1823350424    1.5507210978
H        4.5727983033    0.3035714598    0.0732320086
H       -4.5100095385    1.1708161839   -0.4834687911
H       -2.6891173845    2.1157297546   -1.9074332035
H       -1.5084674124   -1.0768018594    1.6123747717
H        1.0390831801    0.4218271986   -0.6473377661
H        4.0796741484   -2.0461110507   -0.6650511423
H        2.5194676364   -1.4988304070   -1.4422606066
H        2.2262770713    0.9674986654   -1.7663967427
H        2.5594534306    2.0241141593   -0.3690259069
H        3.7872849990    1.7612534941   -1.6136409368
C       -4.2196629694   -0.6455082157    1.5819918835
H       -4.5621527352    0.0828894682    2.3260862021
H       -5.0887018911   -0.9625494089    0.9938007297
H       -3.8462449039   -1.5246495270    2.1202943173
28   
Iteration 19 Energy -0.17418739
C       -3.1555799646   -0.0883638750    0.6475742717
C       -3.4647375809    0.9895215190   -0.1893516854
C       -2.4324276420    1.6407106598   -0.8744592977
N       -1.1433417602    1.2793041307   -0.7582920033
C       -0.8265222935    0.2712176788    0.0595242411
C       -1.8070233181   -0.4531983032    0.7626882856
N        0.5320372481   -0.0353247473    0.0846144290
C        1.3093535556   -0.5987961607    1.0560677671
O        0.8649023508   -1.0227252907    2.1025156387