28   
Iteration 0 Energy -0.17473686
C       -2.9559282200   -0.5472520200    1.0945418700
C       -3.5902947600    0.6243460800    0.6688337800
C       -2.8132190400    1.6554244000    0.1622096200
N       -1.4864466800    1.6021894800    0.0508904100
C       -0.8888253500    0.4802656000    0.4574532000
C       -1.5714956100   -0.6211860500    0.9840020000
N        0.4960472200    0.5185172700    0.2977028900
C        1.4334819000   -0.4379552100    0.5884796400
O        1.1704087200   -1.5325532200    1.0561781200
C        2.8441118800    0.0034762000    0.3023603300
C        3.7126686900   -0.7664931700   -0.6410209500
C        3.2894450700    0.6342237400   -0.9962446900
C        2.3593012200    0.8522237500   -2.1642656600
H        3.3337723500    0.3722306600    1.2028677200
H        4.0540018500    1.4014909900   -0.8868444000
H       -4.6695929200    0.7293168400    0.7312672700
H       -3.2773754100    2.5795805300   -0.1778404700
H       -1.0148572100   -1.4973316200    1.2907412600
H        0.8224563900    1.3914228400   -0.0938177000
H        4.7415987700   -0.9580908600   -0.3523975700
H        3.2425285800   -1.5792203000   -1.1891087800
H        1.6109342600    0.0565723600   -2.2379882800
H        1.8231066700    1.8071188100   -2.0982330000
H        2.9281995300    0.8618034500   -3.1004895200
C       -3.7408917300   -1.6872558100    1.6737454900
H       -4.0938391300   -1.4394082600    2.6820846600
H       -4.6250688200   -1.9093739900    1.0668562600
H       -3.1342308500   -2.5938879700    1.7456410600
28   
Iteration 1 Energy -0.17624913
C       -2.9930068790   -0.5414937652    1.0927939469
C       -3.5765991300    0.6484730915    0.6485005558
C       -2.7509726359    1.6464325911    0.1484906633
N       -1.4233436218    1.5400711635    0.0622895233
C       -0.8615955580    0.4037393432    0.4841221926
C       -1.6082448783   -0.6634561957    1.0055798603
N        0.5288886372    0.4065646386    0.3414616869
C        1.5139982534   -0.5079862634    0.6158353034
O        1.3531615116   -1.6202217769    1.0836882966
C        2.8885796832    0.0192342604    0.2995732712
C        3.7795942983   -0.6966129032   -0.6676592796
C        3.2634368224    0.6784683051   -1.0084839985
C        2.2933559330    0.8428324806   -2.1555068922
H        3.3765142234    0.4153880948    1.1885115335
H        3.9818416625    1.4911303165   -0.9161345205
H       -4.6518410715    0.7943243109    0.6908223819
H       -3.1730456770    2.5851169097   -0.2063619540
H       -1.1029229183   -1.5616232200    1.3313493028
H        0.8454582721    1.2802699483   -0.0518218756
H        4.8251743443   -0.8258143146   -0.4041289858
H        3.3466398760   -1.5357775914   -1.2068685943
H        1.5920090409    0.0038273536   -2.2154725951
H        1.7035021298    1.7639793141   -2.0716795657
H        2.8381304664    0.8889579634   -3.1050873780
C       -3.8297010952   -1.6501084325    1.6665733278
H       -4.1906578727   -1.3825523420    2.6669073223
H       -4.7105792844   -1.8446843548    1.0452692557
H       -3.2577771553   -2.5782843957    1.7550417783
28   
Iteration 2 Energy -0.17810155
C       -2.9936187003   -0.5508838697    1.0992129645
C       -3.5924261184    0.6333295891    0.6583027909
C       -2.7942933678    1.6592693057    0.1512967934
N       -1.4601982525    1.5665719733    0.0617737936
C       -0.8593721540    0.4460432853    0.4747766364
C       -1.6013384233   -0.6287434096    0.9968898751
N        0.5283814132    0.4639567568    0.3299593223
C        1.4949457868   -0.4627008781    0.6123211510
O        1.2848897906   -1.5652761067    1.0773348460
C        2.8903850245    0.0178530928    0.3071156995
C        3.7584303979   -0.7404179904   -0.6581582855
C        3.2899733203    0.6565004749   -1.0087103197
C        2.3295774874    0.8532689280   -2.1693132038
H        3.3902012508    0.4027105350    1.1918239208
H        4.0321795444    1.4482887668   -0.9266300526
H       -4.6688878673    0.7607405264    0.7065435770
H       -3.2374758027    2.5901275522   -0.1986483139
H       -1.0927427712   -1.5247838311    1.3232850047
H        0.8473089191    1.3327774927   -0.0602604317
H        4.7995957389   -0.9012227697   -0.3905371778
H        3.2997762393   -1.5696960884   -1.1926829578
H        1.5953702461    0.0416141344   -2.2354957487
H        1.7790342781    1.7978573157   -2.0829974546
H        2.8799851757    0.8776080557   -3.1170638183
C       -3.8118219011   -1.6828019769    1.6758625564
H       -4.1728789128   -1.4258378213    2.6786081450
H       -4.6901850685   -1.8917194938    1.0545744388
H       -3.2247979352   -2.6042389483    1.7584206503
28   
Iteration 3 Energy -0.17839127
C       -2.9480144031   -0.5399424206    1.0807525594
C       -3.5881623789    0.6270113842    0.6465947296
C       -2.8021053332    1.6755985782    0.1449776717
N       -1.4604216320    1.6018020296    0.0675579732
C       -0.8458289515    0.4910572820    0.4857762808
C       -1.5467458107   -0.6163834016    1.0044217187
N        0.5398411259    0.5248865379    0.3603600455
C        1.4850322528   -0.4132289676    0.6554721410
O        1.2550425640   -1.5166388747    1.1021906634
C        2.8919851581    0.0266082245    0.3366819193
C        3.7093765657   -0.7825894855   -0.6478458224
C        3.2703918585    0.6278260545   -1.0084348054
C        2.2882637330    0.8398828513   -2.1615655594
H        3.4267258341    0.4106071897    1.1984213345
H        4.0313827268    1.4050851601   -0.9811923770
H       -4.6664771881    0.7291519868    0.6924353550
H       -3.2599124723    2.5997394797   -0.2041536934
H       -1.0427686580   -1.5116324892    1.3426237735
H        0.8667762503    1.3897259968   -0.0188274149
H        4.7563481004   -0.9560755396   -0.4084025370
H        3.2183200377   -1.6143175903   -1.1500332459
H        1.5258336375    0.0514545442   -2.2074250679
H        1.7768492496    1.8045542438   -2.0620196636
H        2.8170646181    0.8388418206   -3.1224589276
C       -3.7640517860   -1.6988321241    1.6346335283
H       -4.1438927034   -1.4624394877    2.6351358460
H       -4.6244087660   -1.9154626446    0.9901741198
H       -3.1664464575   -2.6160957812    1.7117536671
28   
Iteration 4 Energy -0.17885846
C       -2.9667916286   -0.5455796462    1.0863799328
C       -3.5853783997    0.6291374586    0.6431073481
C       -2.7885941512    1.6675732293    0.1438076782
N       -1.4483555572    1.6036828518    0.0650039502
C       -0.8435610738    0.4903705646    0.4882889948
C       -1.5669321199   -0.6017309412    1.0041205319
N        0.5440088800    0.5110365578    0.3704004686
C        1.4974429637   -0.4230062630    0.6586856268
O        1.2713366123   -1.5294175732    1.1020824109
C        2.9000874081    0.0260916862    0.3341068595
C        3.7193146383   -0.7724562980   -0.6560825346
C        3.2688461140    0.6326706922   -1.0100365194
C        2.2847407475    0.8379188580   -2.1593142147
H        3.4353774720    0.4112725803    1.1962753319
H        4.0266660827    1.4132378607   -0.9846765462
H       -4.6631742310    0.7437793117    0.6816974601
H       -3.2440965779    2.5916182180   -0.2084358801
H       -1.0573322284   -1.4935425828    1.3444225576
H        0.8733578671    1.3780480459   -0.0069890523
H        4.7690470774   -0.9352683872   -0.4237068513
H        3.2333482972   -1.6076790175   -1.1567145628
H        1.5324908071    0.0406665191   -2.2049040198
H        1.7609840183    1.7960944886   -2.0594532327
H        2.8130930165    0.8449923007   -3.1201195142
C       -3.7812312947   -1.7028483977    1.6393006699
H       -4.1627850213   -1.4664614948    2.6393156844
H       -4.6398586681   -1.9220809040    0.9939138523
H       -3.1820540932   -2.6179252883    1.7171276988
28   
Iteration 5 Energy -0.17887692
C       -2.9679392228   -0.5457230189    1.0897089004
C       -3.5764350388    0.6296461998    0.6370166677
C       -2.7858817070    1.6688568046    0.1333584530
N       -1.4466247689    1.5855003083    0.0649298680
C       -0.8447394610    0.4722161867    0.4935085392
C       -1.5699696459   -0.6161858228    1.0135402563
N        0.5435878085    0.4964137241    0.3744755246
C        1.5016799732   -0.4367206339    0.6549534400
O        1.2832355842   -1.5462047500    1.0954286952
C        2.9013962860    0.0222082347    0.3308294592
C        3.7271606789   -0.7622564309   -0.6638503497
C        3.2663742376    0.6404555827   -1.0084146185
C        2.2842333189    0.8438783492   -2.1578769047
H        3.4333310462    0.4052441553    1.1965257014
H        4.0211257496    1.4238646872   -0.9775593875
H       -4.6545045971    0.7444212550    0.6729236305
H       -3.2358622270    2.5931347255   -0.2252793568
H       -1.0643885150   -1.5079288540    1.3590106172
H        0.8697145846    1.3661035049   -0.0021442441
H        4.7786317548   -0.9167179649   -0.4346327111
H        3.2476809511   -1.5987733316   -1.1683215410
H        1.5420224536    0.0380944254   -2.2111394089
H        1.7478896600    1.7947791185   -2.0544978671
H        2.8158596969    0.8640598013   -3.1165644946
C       -3.7922711175   -1.6920500938    1.6464863100
H       -4.1747823065   -1.4468795071    2.6440818069
H       -4.6506421273   -1.9087442402    1.0001182520
H       -3.1998861508   -2.6104980870    1.7309887955
28   
Iteration 6 Energy -0.17892346
C       -2.9680011746   -0.5412751867    1.0891146499
C       -3.5884974932    0.6273045586    0.6348688039
C       -2.7907862516    1.6613357159    0.1308437907
N       -1.4508326155    1.5855820443    0.0617615473
C       -0.8421346570    0.4769020547    0.4923221973
C       -1.5694522546   -0.6093417313    1.0142573018
N        0.5460899499    0.5037545762    0.3748250396
C        1.4991651465   -0.4347809899    0.6533690496
O        1.2749184924   -1.5446994543    1.0895247403
C        2.9016417201    0.0178771051    0.3319222137
C        3.7235717066   -0.7679104915   -0.6656744282
C        3.2683203473    0.6379258245   -1.0062422875
C        2.2872513578    0.8480750783   -2.1560401887
H        3.4354225081    0.3959347632    1.1984715572
H        4.0273024532    1.4172315978   -0.9757500153
H       -4.6667884889    0.7398158760    0.6693398475
H       -3.2406182909    2.5843784681   -0.2311650908
H       -1.0650956227   -1.5002103455    1.3635188205
H        0.8737930234    1.3733327628   -0.0000117339
H        4.7751936351   -0.9257573278   -0.4391515336
H        3.2403756241   -1.6021382414   -1.1705002202
H        1.5432165883    0.0440909082   -2.2129987400
H        1.7531043973    1.7997515153   -2.0487087769
H        2.8194099776    0.8710105158   -3.1144142989
C       -3.7859238797   -1.6912080066    1.6491703232
H       -4.1687933663   -1.4461951509    2.6466414970
H       -4.6433241377   -1.9141364238    1.0035686953
H       -3.1885318261   -2.6064556713    1.7347412862
28   
Iteration 7 Energy -0.17895295
C       -2.9647539029   -0.5431357759    1.0900816663
C       -3.5823069760    0.6245400848    0.6282756092
C       -2.7866429718    1.6593366247    0.1206059670
N       -1.4460526749    1.5896875046    0.0526703065
C       -0.8417440337    0.4818820026    0.4908156935
C       -1.5649973353   -0.6051118877    1.0171650607
N        0.5464865297    0.5059041045    0.3793919524
C        1.4973731302   -0.4351279215    0.6542641313
O        1.2686410916   -1.5466843230    1.0834697076
C        2.9013172464    0.0140960826    0.3343704779
C        3.7183670980   -0.7715274520   -0.6685072231
C        3.2654936185    0.6370591392   -1.0034561865
C        2.2818819102    0.8530029010   -2.1510716975
H        3.4382193932    0.3874523923    1.2007309017
H        4.0270662371    1.4138916309   -0.9754799129
H       -4.6606138482    0.7367424163    0.6596943649
H       -3.2397946580    2.5791021131   -0.2455948434
H       -1.0578721411   -1.4924268328    1.3718816668
H        0.8768302117    1.3751691121    0.0074796110
H        4.7709583529   -0.9311074836   -0.4472172303
H        3.2316531471   -1.6041227907   -1.1727986461
H        1.5373507455    0.0494575685   -2.2107827385
H        1.7486105349    1.8042826233   -2.0365442605
H        2.8118001540    0.8810681228   -3.1106214331
C       -3.7834946077   -1.6925494338    1.6525974841
H       -4.1688185997   -1.4445111567    2.6483368802
H       -4.6388756945   -1.9185624057    1.0052703972
H       -3.1860851111   -2.6076125771    1.7425763480
28   
Iteration 8 Energy -0.17897840
C       -2.9657765352   -0.5425587830    1.0927950118
C       -3.5814347445    0.6221035407    0.6214148918
C       -2.7856753735    1.6536685839    0.1082615148
N       -1.4451923357    1.5812203241    0.0443177032
C       -0.8414577297    0.4761652723    0.4902955087
C       -1.5662959891   -0.6064060508    1.0232263255
N        0.5471438331    0.5005557342    0.3814472150
C        1.4972292080   -0.4435358554    0.6495831445
O        1.2685582926   -1.5580192158    1.0714522523
C        2.9013284088    0.0075212602    0.3329427415
C        3.7192893161   -0.7701202125   -0.6749097279
C        3.2654694094    0.6401292503   -1.0002018291
C        2.2828999747    0.8623966887   -2.1470335832
H        3.4376331845    0.3746384211    1.2024518391
H        4.0277938278    1.4160440533   -0.9672186445
H       -4.6598497180    0.7344438558    0.6500400018
H       -3.2374472817    2.5712388908   -0.2650735228
H       -1.0598626158   -1.4909339121    1.3857454341
H        0.8780968751    1.3710053779    0.0122842028
H        4.7723822954   -0.9295382591   -0.4561281026
H        3.2330911674   -1.6002168083   -1.1837447927
H        1.5418764984    0.0563155650   -2.2147962963
H        1.7451528495    1.8102738399   -2.0252873455
H        2.8141916964    0.9012448006   -3.1054192311
C       -3.7861402924   -1.6870297877    1.6618789970
H       -4.1724336760   -1.4319277098    2.6554702715
H       -4.6409838698   -1.9166257078    1.0151500999
H       -3.1895898496   -2.6018588566    1.7586598387
28   
Iteration 9 Energy -0.17900465
C       -2.9671906739   -0.5415311096    1.0966331533
C       -3.5821973545    0.6177666694    0.6116774318
C       -2.7854345213    1.6440508317    0.0902494065
N       -1.4449614136    1.5696825717    0.0311313767
C       -0.8414401834    0.4691602191    0.4886489810
C       -1.5678712341   -0.6071766282    1.0316683365
N        0.5475649838    0.4939442880    0.3838225202
C        1.4965905676   -0.4541095987    0.6422416567
O        1.2651006051   -1.5723014296    1.0528886785
C        2.9015220101   -0.0020763499    0.3307190790
C        3.7196815310   -0.7698165002   -0.6839746703
C        3.2670234016    0.6437050493   -0.9956166926
C        2.2859130236    0.8772088793   -2.1410792231
H        3.4374572200    0.3552973756    1.2045934450
H        4.0310367265    1.4175985577   -0.9548595029
H       -4.6607561137    0.7299450732    0.6365656328
H       -3.2357422739    2.5580358400   -0.2934987541
H       -1.0621969721   -1.4873409060    1.4057078755
H        0.8794135577    1.3659597107    0.0187750830
H        4.7729393565   -0.9313898885   -0.4677516119
H        3.2329371913   -1.5951130585   -1.2000116846
H        1.5477924818    0.0695220967   -2.2200821937
H        1.7443489433    1.8215030115   -2.0087504678
H        2.8187965719    0.9300591777   -3.0978880600
C       -3.7886879055   -1.6795266544    1.6759821124
H       -4.1762116143   -1.4142213742    2.6664270578
H       -4.6428876324   -1.9152072497    1.0306274885
H       -3.1925434982   -2.5934344299    1.7827571957
28   
Iteration 10 Energy -0.17903889
C       -2.9676633671   -0.5403822563    1.1014779348
C       -3.5820558957    0.6110551904    0.5975656832
C       -2.7846457345    1.6305810791    0.0644137625
N       -1.4440199749    1.5557311879    0.0113932392
C       -0.8404257787    0.4620372668    0.4851130724
C       -1.5683016694   -0.6059785189    1.0422518108
N        0.5490560662    0.4875784215    0.3862972373
C        1.4937094154   -0.4681928595    0.6324542829
O        1.2601214158   -1.5917753070    1.0270827196
C        2.9001395272   -0.0159370874    0.3283065458
C        3.7175458025   -0.7710754629   -0.6958870975
C        3.2680058412    0.6474074477   -0.9885757382
C        2.2884166584    0.8979025692   -2.1314676935
H        3.4360758939    0.3275086680    1.2078031694
H        4.0346284680    1.4180838372   -0.9371253473
H       -4.6608262157    0.7224405586    0.6172775246
H       -3.2340979198    2.5388457120   -0.3336488339
H       -1.0627382092   -1.4793271227    1.4321652367
H        0.8834563050    1.3612081020    0.0272673620
H        4.7707219466   -0.9371145967   -0.4827798675
H        3.2291179192   -1.5888550439   -1.2221860590
H        1.5527636881    0.0895762005   -2.2254569462
H        1.7435405391    1.8380730547   -1.9841531182
H        2.8228456539    0.9689456786   -3.0862194247
C       -3.7897877760   -1.6700950172    1.6952338971
H       -4.1791670274   -1.3909369556    2.6811381888
H       -4.6429289995   -1.9149876803    1.0519334567
H       -3.1934898823   -2.5821230655    1.8159287506
28   
Iteration 11 Energy -0.17909150
C       -2.9686093323   -0.5389935668    1.1085726186
C       -3.5825590828    0.6007638763    0.5782628851
C       -2.7840268894    1.6104684716    0.0284943736
N       -1.4431259805    1.5360431522   -0.0165558024
C       -0.8399757093    0.4522444764    0.4800746493
C       -1.5690504623   -0.6041394950    1.0572121366
N        0.5500303825    0.4783274959    0.3899546199
C        1.4900166987   -0.4863691670    0.6184402797
O        1.2505762467   -1.6164140532    0.9906598537
C        2.8988149801   -0.0348744383    0.3243700835
C        3.7143234629   -0.7735316852   -0.7128408455
C        3.2708519589    0.6520524466   -0.9791696152
C        2.2936355064    0.9276712709   -2.1181637947
H        3.4351783970    0.2888311709    1.2110941610
H        4.0413266249    1.4177183459   -0.9126341325
H       -4.6615809266    0.7108576207    0.5908872420
H       -3.2325959478    2.5101615589   -0.3895272818
H       -1.0634554633   -1.4673978806    1.4691520046
H        0.8874755274    1.3542591214    0.0394206111
H        4.7669555722   -0.9472916651   -0.5033000593
H        3.2228243231   -1.5798026315   -1.2538341550
H        1.5597637792    0.1203817568   -2.2328212871
H        1.7462518086    1.8629248161   -1.9502533521
H        2.8302301963    1.0225028830   -3.0696180686
C       -3.7915620753   -1.6569374381    1.7226177211
H       -4.1835116544   -1.3583958552    2.7018024817
H       -4.6431865507   -1.9148896568    1.0824301352
H       -3.1950187992   -2.5659770844    1.8628764550
28   
Iteration 12 Energy -0.17874688
C       -2.9584675237   -0.5419866413    1.1123184035
C       -3.5871261865    0.5874406049    0.5761207073
C       -2.8024934939    1.6040696185    0.0179835475
N       -1.4607167302    1.5512354657   -0.0323332401
C       -0.8470106415    0.4765893461    0.4704170097
C       -1.5578079222   -0.5866752221    1.0567489535
N        0.5420695905    0.5132373770    0.3815774862
C        1.4657435081   -0.4666512861    0.6084762693
O        1.1892882856   -1.5908581075    0.9725543801
C        2.8862212412   -0.0461351054    0.3247618798
C        3.6891592919   -0.7994057942   -0.7124357629
C        3.2812396770    0.6379064608   -0.9736614016
C        2.3161888822    0.9433695766   -2.1159088469
H        3.4256325091    0.2607258395    1.2154867723
H        4.0682046260    1.3858363428   -0.8990868785
H       -4.6673170172    0.6845938742    0.5904280162
H       -3.2653929929    2.4946917164   -0.4038266961
H       -1.0361652794   -1.4391909494    1.4718243643
H        0.8839940220    1.3890109320    0.0355513431
H        4.7359101956   -0.9998524867   -0.4970869238
H        3.1816903891   -1.5905498412   -1.2610182385
H        1.5638343950    0.1544968441   -2.2391601014
H        1.7907714714    1.8904601687   -1.9443474087
H        2.8593945490    1.0311052265   -3.0643194101
C       -3.7655362066   -1.6672530474    1.7351952285
H       -4.1583922817   -1.3682834898    2.7138701511
H       -4.6155372853   -1.9395694367    1.0987546238
H       -3.1573824624   -2.5681643150    1.8787194743
28   
Iteration 13 Energy -0.17901771
C       -2.9634034869   -0.5408157852    1.1097923853
C       -3.5852708665    0.5953299802    0.5801997347
C       -2.7942980798    1.6102645147    0.0282582545
N       -1.4529236544    1.5472387803   -0.0210511324
C       -0.8443429331    0.4665767335    0.4751781591
C       -1.5632090716   -0.5951966624    1.0545613776
N        0.5449531466    0.4974521008    0.3843411583
C        1.4772234142   -0.4737620821    0.6142183318
O        1.2181638093   -1.5998311163    0.9852797048
C        2.8921416011   -0.0384869612    0.3250638150
C        3.7021482558   -0.7866788472   -0.7099688069
C        3.2762612000    0.6442981942   -0.9772309255
C        2.3057858257    0.9318983896   -2.1193396855
H        3.4295131962    0.2787958558    1.2134091585
H        4.0551619832    1.4011495747   -0.9081437673
H       -4.6648839256    0.6988182406    0.5949604088
H       -3.2507044181    2.5064836780   -0.3887439468
H       -1.0488207546   -1.4541794328    1.4650822268
H        0.8843794710    1.3728161964    0.0346960742
H        4.7519682073   -0.9729597532   -0.4969334664
H        3.2029542253   -1.5869148974   -1.2529097508
H        1.5627685514    0.1333746500   -2.2367888024
H        1.7691235757    1.8735000681   -1.9523903679
H        2.8463695543    1.0208464947   -3.0691238381
C       -3.7776956612   -1.6642716287    1.7260834426
H       -4.1693386018   -1.3680981714    2.7060990933
H       -4.6290296224   -1.9279596124    1.0878121360
H       -3.1749983453   -2.5694946944    1.8651928974
28   
Iteration 14 Energy -0.17909028
C       -2.9660906484   -0.5399277594    1.1091652856
C       -3.5838976104    0.5981999407    0.5793687522
C       -2.7890308473    1.6105552600    0.0286111405
N       -1.4478771310    1.5417067400   -0.0186207975
C       -0.8421942539    0.4593414421    0.4776532133
C       -1.5661746951   -0.5997721047    1.0557841164
N        0.5473922455    0.4875826085    0.3871666511
C        1.4837291432   -0.4800870306    0.6163873155
O        1.2345115634   -1.6081348224    0.9881952991
C        2.8955487304   -0.0365229980    0.3247177812
C        3.7084756259   -0.7799363353   -0.7112970269
C        3.2735356874    0.6482843326   -0.9782731139
C        2.2996349488    0.9295875260   -2.1188912685
H        3.4323527032    0.2841519183    1.2122250629
H        4.0481375712    1.4096620633   -0.9105429347
H       -4.6632064838    0.7051007230    0.5931047449
H       -3.2414479585    2.5086191469   -0.3887680160
H       -1.0562252884   -1.4610162988    1.4668805076
H        0.8857763689    1.3632050138    0.0370120500
H        4.7597612702   -0.9597467838   -0.5000088486
H        3.2132561370   -1.5833629355   -1.2531494235
H        1.5613154847    0.1265213779   -2.2348420340
H        1.7574305214    1.8679567768   -1.9516117401
H        2.8382370819    1.0214470111   -3.0695146428
C       -3.7848090224   -1.6606547160    1.7242205805
H       -4.1765549871   -1.3633873379    2.7038683042
H       -4.6363385666   -1.9213194076    1.0849849223
H       -3.1852509970   -2.5678595192    1.8637780191
28   
Iteration 15 Energy -0.17910480
C       -2.9677065367   -0.5396759980    1.1091826854
C       -3.5831390502    0.5992464578    0.5782342556
C       -2.7855983600    1.6096319990    0.0275247945
N       -1.4444744776    1.5392025401   -0.0191114707
C       -0.8413626442    0.4559452980    0.4782920799
C       -1.5677072080   -0.6015971149    1.0566294225
N        0.5484215611    0.4816860787    0.3888557602
C        1.4872224158   -0.4838479846    0.6171647278
O        1.2423882294   -1.6129546441    0.9885347471
C        2.8974910849   -0.0359965454    0.3246076259
C        3.7115809783   -0.7767316960   -0.7125681532
C        3.2722825963    0.6504531999   -0.9784658089
C        2.2964373584    0.9295568818   -2.1181000335
H        3.4341986668    0.2858516145    1.2117084629
H        4.0446389316    1.4141399405   -0.9111524439
H       -4.6622292056    0.7082881525    0.5910221454
H       -3.2362724658    2.5081920486   -0.3906727891
H       -1.0597148492   -1.4634981058    1.4687019005
H        0.8865991866    1.3573652736    0.0388510719
H        4.7635613368   -0.9536831267   -0.5022488451
H        3.2181674239   -1.5812961467   -1.2543959960
H        1.5602868339    0.1244459186   -2.2338120296
H        1.7517930419    1.8663000848   -1.9496836756
H        2.8338418833    1.0234595058   -3.0692110212
C       -3.7887947389   -1.6587523506    1.7244210651
H       -4.1806660427   -1.3602382667    2.7036342090
H       -4.6403313265   -1.9183446143    1.0847429068
H       -3.1909180314   -2.5669545650    1.8649182919
28   
Iteration 16 Energy -0.17911806
C       -2.9670320178   -0.5392841852    1.1100267055
C       -3.5824142509    0.5973218081    0.5740152748
C       -2.7845059204    1.6058485261    0.0200663657
N       -1.4432073945    1.5357724569   -0.0251238214
C       -0.8406452957    0.4543648296    0.4769397511
C       -1.5668460840   -0.6011742323    1.0591967458
N        0.5492130484    0.4795783610    0.3896794940
C        1.4868743361   -0.4875374229    0.6155117993
O        1.2426469969   -1.6181542856    0.9825395931
C        2.8972811968   -0.0392051357    0.3245167786
C        3.7101624705   -0.7775057019   -0.7157432309
C        3.2719481983    0.6510211128   -0.9766376168
C        2.2953671519    0.9351771995   -2.1146464211
H        3.4347230519    0.2795126423    1.2122486600
H        4.0443058451    1.4145058260   -0.9071680492
H       -4.6615182535    0.7061834062    0.5853755303
H       -3.2351175196    2.5026555183   -0.4019476686
H       -1.0592078777   -1.4612077185    1.4756378330
H        0.8884333176    1.3555539856    0.0416761624
H        4.7619272629   -0.9563331500   -0.5058296587
H        3.2159320986   -1.5795946282   -1.2605110067
H        1.5584408757    0.1311232861   -2.2329475278
H        1.7518490659    1.8717836172   -1.9419414295
H        2.8320540466    1.0322397436   -3.0658585223
C       -3.7886985337   -1.6562051919    1.7289688660
H       -4.1813248295   -1.3540144082    2.7067429633
H       -4.6396327761   -1.9182625146    1.0894733341
H       -3.1910116344   -2.5639697060    1.8733429811
28   
Iteration 17 Energy -0.17913491
C       -2.9676047637   -0.5390723601    1.1120076727
C       -3.5829793203    0.5942056736    0.5689595084
C       -2.7846202304    1.6000232124    0.0102928101
N       -1.4430765167    1.5306463697   -0.0332425692
C       -0.8405514513    0.4521285871    0.4750418705
C       -1.5672042005   -0.6000631832    1.0628140585
N        0.5493808408    0.4765914176    0.3905397921
C        1.4866513278   -0.4917020700    0.6122671152
O        1.2402130481   -1.6236943013    0.9734060948
C        2.8976915081   -0.0436941953    0.3237148317
C        3.7089455516   -0.7789761358   -0.7204539170
C        3.2735038235    0.6517278224   -0.9744794569
C        2.2970676415    0.9438108616   -2.1109444769
H        3.4359432716    0.2701656616    1.2126289323
H        4.0465044388    1.4142105865   -0.9013481143
H       -4.6621065624    0.7028145395    0.5785239462
H       -3.2352676678    2.4943070039   -0.4170079015
H       -1.0597975291   -1.4573612057    1.4852468701
H        0.8894816124    1.3531475851    0.0451576284
H        4.7601554458   -0.9611657755   -0.5105578848
H        3.2133406843   -1.5771960306   -1.2696609571
H        1.5585845257    0.1418046181   -2.2335664432
H        1.7556207809    1.8805822310   -1.9327648245
H        2.8336726106    1.0449527345   -3.0617903325
C       -3.7894318484   -1.6531337032    1.7365378328
H       -4.1828101284   -1.3458608634    2.7124154499
H       -4.6397103980   -1.9190037387    1.0977221024
H       -3.1915999278   -2.5600012571    1.8861443535
28   
Iteration 18 Energy -0.17915889
C       -2.9675060935   -0.5387082003    1.1147187632
C       -3.5829330903    0.5896997559    0.5617588427
C       -2.7848683375    1.5920894577   -0.0036408673
N       -1.4431068310    1.5231858621   -0.0444483280
C       -0.8404582406    0.4488503382    0.4725454319
C       -1.5669694955   -0.5990095736    1.0681808423
N        0.5496266725    0.4736230864    0.3913309183
C        1.4849460350   -0.4978120661    0.6073013633
O        1.2364657749   -1.6319340721    0.9602063237
C        2.8969774921   -0.0505160420    0.3223350194
C        3.7064966786   -0.7809768954   -0.7268953082
C        3.2750429564    0.6526170535   -0.9711571623
C        2.2993666718    0.9558794521   -2.1055300159
H        3.4359047975    0.2561671265    1.2133278440
H        4.0492853962    1.4132510891   -0.8921743638
H       -4.6621658352    0.6974031970    0.5689534761
H       -3.2356401598    2.4827073942   -0.4384021454
H       -1.0593444949   -1.4521350730    1.4988202400
H        0.8910824446    1.3510135034    0.0495580577
H        4.7568591747   -0.9678742335   -0.5168944319
H        3.2091720444   -1.5736468392   -1.2825545824
H        1.5588940347    0.1566880746   -2.2344208193
H        1.7604207318    1.8926964409   -1.9201599574
H        2.8363004778    1.0628544407   -3.0555529965
C       -3.7895187561   -1.6484309252    1.7469948586
H       -4.1840135493   -1.3339488211    2.7201177579
H       -4.6389150621   -1.9196746244    1.1092606576
H       -3.1914048927   -2.5538647214    1.9040248204
28   
Iteration 19 Energy -0.17919360
C       -2.9671769440   -0.5380244375    1.1184623490
C       -3.5834058452    0.5831394244    0.5518766602
C       -2.7855837512    1.5804387972   -0.0227609874
N       -1.4436157424    1.5130852251   -0.0601548872
C       -0.8405514199    0.4448467225    0.4688684039
C       -1.5665329816   -0.5969657884    1.0754531801
N        0.5497249284    0.4705547002    0.3920736170
C        1.4816338299   -0.5059444680    0.5997542590
O        1.2293745826   -1.6427813945    0.9411191851