28   
Iteration 0 Energy -0.17888583
C       -3.1340317300   -0.2264402800    0.2870470000
C       -3.6890422000    1.0380893000    0.0634095600
C       -2.8439124000    2.1365206600    0.0176246300
N       -1.5223373600    2.0663336300    0.1747356400
C       -1.0003746900    0.8564205900    0.3850801400
C       -1.7560650000   -0.3190654000    0.4482836100
N        0.3862628600    0.8853124700    0.5316925500
C        1.2603803800   -0.1499825200    0.7437505900
O        0.9212406100   -1.3222046500    0.8050871500
C        2.6862272400    0.2978200900    0.8013594300
C        3.7653783700   -0.7376004900    0.7830596100
C        3.5413110300    0.0940879600   -0.4415007400
C        2.9604997100   -0.5083621700   -1.6938657400
H        2.8613247600    1.2183928500    1.3548923400
H        4.2628248400    0.8910872900   -0.6115081800
H       -4.7594613800    1.1623873200   -0.0728825400
H       -3.2446622200    3.1337442700   -0.1557511800
H       -1.2578087300   -1.2648053200    0.6166139000
H        0.7625522100    1.8207638000    0.4500680500
H        4.6491226300   -0.5626617800    1.3889870700
H        3.4137583800   -1.7654738500    0.7586361800
H        2.2231928100   -1.2803293100   -1.4531249300
H        2.4663188900    0.2521026000   -2.3095091400
H        3.7486592600   -0.9711123500   -2.2979083800
C       -4.0004466900   -1.4488045900    0.3666060200
H       -4.6024980000   -1.4368061500    1.2830751600
H       -4.6971598600   -1.4960697500   -0.4772805500
H       -3.4012543200   -2.3631380000    0.3709196700
28   
Iteration 1 Energy -0.18096560
C       -3.1974688279   -0.2208220327    0.2891091415
C       -3.7024241311    1.0635646936    0.0652521485
C       -2.8126111672    2.1278046090    0.0219845831
N       -1.4936180851    2.0022958468    0.1821683020
C       -1.0078954851    0.7761953943    0.3936723233
C       -1.8222818025   -0.3644555947    0.4528531674
N        0.3820874367    0.7676868133    0.5412493788
C        1.3011163881   -0.2294063923    0.7549782534
O        1.0532314642   -1.4214064189    0.8340931180
C        2.7001938569    0.3037275392    0.7947297634
C        3.8430578508   -0.6644974134    0.7781263136
C        3.5582431690    0.1415616910   -0.4530398261
C        3.0083782097   -0.5068951197   -1.6994391428
H        2.8228510586    1.2385553620    1.3376083125
H        4.2274101771    0.9801442632   -0.6360344910
H       -4.7665124897    1.2305846755   -0.0730369591
H       -3.1720108864    3.1406823867   -0.1514433273
H       -1.3742569225   -1.3333876972    0.6210245310
H        0.7509329456    1.7038381870    0.4544648297
H        4.7187133194   -0.4280089135    1.3752081685
H        3.5582131603   -1.7133780403    0.7674702946
H        2.3217622564   -1.3223905916   -1.4513792766
H        2.4645350158    0.2171166012   -2.3172363706
H        3.8208452559   -0.9238992195   -2.3048039148
C       -4.1116985480   -1.4105842610    0.3663892115
H       -4.7144897713   -1.3758913891    1.2817156433
H       -4.8078193962   -1.4304356596   -0.4792487204
H       -3.5484846359   -2.3480931000    0.3711614640
28   
Iteration 2 Energy -0.18227443
C       -3.2501043037   -0.2183241546    0.3221667260
C       -3.7497276443    1.0695460038    0.1067975588
C       -2.8785996791    2.1601134255    0.0334486592
N       -1.5495886942    2.0221387051    0.1649759519
C       -1.0204519322    0.8119265699    0.3755602139
C       -1.8598457725   -0.3170161086    0.4574326780
N        0.3704565799    0.8004845798    0.4972498484
C        1.2495092763   -0.2291009025    0.6959129339
O        0.9255239035   -1.3957296711    0.8099189719
C        2.6811436194    0.2495575472    0.7690109407
C        3.8629564575   -0.6996560397    0.8067490609
C        3.6026264169    0.1159778465   -0.4363210295
C        3.1625448826   -0.5114524457   -1.7543195942
H        2.7852534279    1.1831443740    1.3136694655
H        4.2608701898    0.9671275458   -0.5967258689
H       -4.8160992707    1.2331689063   -0.0048396681
H       -3.2525503100    3.1688169304   -0.1343131098
H       -1.4367555952   -1.2957406844    0.6302672042
H        0.7581542284    1.7201096513    0.4041790140
H        4.7061805203   -0.4175771314    1.4322133384
H        3.6519620222   -1.7675638388    0.8090911775
H        2.4966953490   -1.3712919390   -1.6187127482
H        2.6386526433    0.2233154806   -2.3770729635
H        4.0351879484   -0.8653556571   -2.3157674980
C       -4.1621598337   -1.4251154378    0.4129029084
H       -4.7486574972   -1.3986715635    1.3385899637
H       -4.8665603490   -1.4480731901   -0.4268100432
H       -3.5966177564   -2.3645525857    0.4023430087
28   
Iteration 3 Energy -0.18378894
C       -3.2107178464   -0.2103586514    0.3220465377
C       -3.7481898151    1.0612971687    0.0929827844
C       -2.8765776513    2.1551498848    0.0145348299
N       -1.5452795207    2.0308046137    0.1515706405
C       -1.0225743709    0.8207879791    0.3736040394
C       -1.8205663342   -0.3369511344    0.4693210648
N        0.3655548336    0.8171723856    0.5014014922
C        1.2486182112   -0.2042757843    0.7080199615
O        0.9510886290   -1.3765182384    0.8238192929
C        2.6786650953    0.2818113252    0.7764096826
C        3.8142021937   -0.7291560406    0.7933483232
C        3.5873733301    0.1361466820   -0.4288294725
C        3.1295989169   -0.4970011256   -1.7410972779
H        2.8088659265    1.2003241884    1.3403352051
H        4.2780046060    0.9597610084   -0.5972948625
H       -4.8162737329    1.2083799578   -0.0222022573
H       -3.2559108434    3.1602495270   -0.1626175302
H       -1.3956497017   -1.3136079866    0.6546188869
H        0.7498411469    1.7358775093    0.4056036415
H        4.6736052522   -0.5053375456    1.4208889163
H        3.5585524636   -1.7867097821    0.7524544663
H        2.4482431320   -1.3427594206   -1.5878168978
H        2.6148147722    0.2411405158   -2.3675390273
H        3.9912345575   -0.8734619765   -2.3051736736
C       -4.1219139699   -1.4229467537    0.4142740503
H       -4.7130737235   -1.3951506974    1.3368404017
H       -4.8186001936   -1.4534942335   -0.4317818149
H       -3.5529364510   -2.3609673519    0.4098756752
28   
Iteration 4 Energy -0.18389012
C       -3.2074694931   -0.2217414820    0.3118894630
C       -3.7349389283    1.0532781874    0.0771140802
C       -2.8628851622    2.1465787785    0.0065793104
N       -1.5308385619    2.0514659524    0.1522020695
C       -1.0091807660    0.8427583083    0.3772053437
C       -1.8153810106   -0.3077718221    0.4636709077
N        0.3770690996    0.8306159448    0.5169958392
C        1.2652249417   -0.1861091633    0.7249115822
O        0.9661209326   -1.3597417500    0.8228978040
C        2.6935591877    0.2950303663    0.7896162686
C        3.8086097635   -0.7337114643    0.7913079318
C        3.5791469161    0.1315899452   -0.4285733515
C        3.0731974816   -0.4950163436   -1.7225982462
H        2.8423378597    1.2063236153    1.3615673384
H        4.2892985425    0.9354205642   -0.6116983764
H       -4.8018071164    1.2028290122   -0.0488555025
H       -3.2504575628    3.1476592748   -0.1751760296
H       -1.3705880699   -1.2761663908    0.6508834875
H        0.7623930456    1.7508833072    0.4276238440
H        4.6828271874   -0.5363813708    1.4066481183
H        3.5259636736   -1.7826002385    0.7239549646
H        2.3752092318   -1.3192489353   -1.5308102599
H        2.5565663647    0.2494927965   -2.3398044112
H        3.9074672645   -0.8980542471   -2.3087326405
C       -4.1038794069   -1.4444442983    0.4020540259
H       -4.6998640066   -1.4224715843    1.3217731308
H       -4.7955639861   -1.4864905004   -0.4473687277
H       -3.5221382781   -2.3737702326    0.4023191386
28   
Iteration 5 Energy -0.18414041
C       -3.2089851997   -0.2180931915    0.3145421795
C       -3.7312369701    1.0584975892    0.0799190852
C       -2.8627496804    2.1540451897    0.0068979273
N       -1.5323247783    2.0367158354    0.1536443475
C       -1.0155894346    0.8253779202    0.3781799190
C       -1.8191262268   -0.3270805503    0.4670255764
N        0.3713850633    0.8158395821    0.5156065710
C        1.2587483695   -0.2027650000    0.7196544086
O        0.9602603673   -1.3764311369    0.8186090297
C        2.6859062606    0.2822139116    0.7864141871
C        3.8251626141   -0.7194084789    0.7967605286
C        3.5789173153    0.1299298635   -0.4298957763
C        3.0864504858   -0.4956638749   -1.7297551792
H        2.8209599672    1.1969934026    1.3561361529
H        4.2776541168    0.9442388498   -0.6103291611
H       -4.7982981982    1.2081520006   -0.0447572795
H       -3.2437371766    3.1576996921   -0.1745731928
H       -1.3813668538   -1.2985057380    0.6535941657
H        0.7563210626    1.7366223164    0.4269368314
H        4.6935429733   -0.4952999667    1.4110514777
H        3.5710892717   -1.7761496276    0.7391400044
H        2.3999726085   -1.3314833919   -1.5476143721
H        2.5610752325    0.2453669043   -2.3437425990
H        3.9289413315   -0.8819622942   -2.3153499067
C       -4.1171357458   -1.4316091654    0.4047105723
H       -4.7123200684   -1.4042427681    1.3248136926
H       -4.8096316349   -1.4667282537   -0.4443181894
H       -3.5438859352   -2.3660633998    0.4042961063
28   
Iteration 6 Energy -0.18411394
C       -3.2109649501   -0.2119232158    0.3170044229
C       -3.7473483324    1.0577905960    0.0777280375
C       -2.8708301797    2.1471196961    0.0020820478
N       -1.5393488526    2.0354122542    0.1476174269
C       -1.0125132143    0.8292063517    0.3766554242
C       -1.8207416021   -0.3201360795    0.4695265415
N        0.3746945848    0.8246081601    0.5134940709
C        1.2551379730   -0.2004072041    0.7150987391
O        0.9527753847   -1.3728636184    0.8134726208
C        2.6847214547    0.2782268379    0.7852772951
C        3.8184130635   -0.7310210266    0.7948118000
C        3.5828817028    0.1287903093   -0.4274126358
C        3.0961135333   -0.4897538196   -1.7338001848
H        2.8228861354    1.1890239081    1.3603667117
H        4.2888266101    0.9384699516   -0.6003309695
H       -4.8146819268    1.2052666826   -0.0465372031
H       -3.2503514648    3.1507914997   -0.1823984955
H       -1.3874247110   -1.2925550260    0.6600041753
H        0.7609322791    1.7445431170    0.4251243128
H        4.6858548659   -0.5107127563    1.4119219352
H        3.5645634113   -1.7880333431    0.7392183488
H        2.4088472892   -1.3273537619   -1.5633368985
H        2.5740592434    0.2554796803   -2.3455634386
H        3.9419790251   -0.8718629443   -2.3173322975
C       -4.1124620553   -1.4304302664    0.4126062136
H       -4.7063867341   -1.4033467771    1.3335037936
H       -4.8056713155   -1.4722940863   -0.4355835414
H       -3.5339620559   -2.3618288174    0.4143788843
28   
Iteration 7 Energy -0.18418573
C       -3.2100250336   -0.2170120644    0.3178008309
C       -3.7366544970    1.0561879048    0.0750874836
C       -2.8660094719    2.1500046624   -0.0035960402
N       -1.5350069752    2.0361239290    0.1439860184
C       -1.0142856678    0.8279683976    0.3762101418
C       -1.8197770305   -0.3229457884    0.4718072681
N        0.3725736234    0.8209169896    0.5152129130
C        1.2573040849   -0.2003935936    0.7163492921
O        0.9562853520   -1.3734016872    0.8122378772
C        2.6856788870    0.2809597555    0.7867639169
C        3.8159883488   -0.7318980507    0.7925641777
C        3.5822025358    0.1326564354   -0.4267735213
C        3.0922315337   -0.4850820598   -1.7321819447
H        2.8250663514    1.1894629810    1.3652253314
H        4.2912232715    0.9397227886   -0.5994375131
H       -4.8036984839    1.2043754516   -0.0508250258
H       -3.2471874185    3.1525029304   -0.1910044585
H       -1.3842040006   -1.2938222582    0.6655292927
H        0.7578695770    1.7413343530    0.4274821359
H        4.6850125769   -0.5164288229    1.4091773231
H        3.5592623658   -1.7879217529    0.7319320724
H        2.4056292053   -1.3228493686   -1.5597402890
H        2.5681327050    0.2602982600   -2.3420151454
H        3.9365257526   -0.8666683979   -2.3183228478
C       -4.1155489497   -1.4325029024    0.4146891374
H       -4.7104608038   -1.4017169581    1.3348353502
H       -4.8078426523   -1.4737753835   -0.4342782433
H       -3.5402859742   -2.3658894302    0.4188815933
28   
Iteration 8 Energy -0.18419626
C       -3.2104504266   -0.2168495560    0.3181942236
C       -3.7350895978    1.0562457561    0.0703635268
C       -2.8621660978    2.1478863871   -0.0100769551
N       -1.5315772101    2.0345501549    0.1399368767
C       -1.0143763163    0.8258165161    0.3761955155
C       -1.8206843883   -0.3239985438    0.4745431165
N        0.3721273311    0.8164013928    0.5178970412
C        1.2574434731   -0.2050365709    0.7159110606
O        0.9569759720   -1.3786723021    0.8066767347
C        2.6851360595    0.2769438817    0.7890693139
C        3.8196324577   -0.7304348764    0.7930064216
C        3.5811663775    0.1328490618   -0.4257583053
C        3.0890388696   -0.4802914561   -1.7320814554
H        2.8221276365    1.1835255359    1.3711906822
H        4.2900853849    0.9402162953   -0.5974740270
H       -4.8017114970    1.2056998729   -0.0579215896
H       -3.2418758870    3.1502139457   -0.2013137277
H       -1.3850913490   -1.2941638890    0.6722953579
H        0.7580466232    1.7369894106    0.4326872855
H        4.6888565255   -0.5135607839    1.4088027227
H        3.5667861825   -1.7869110279    0.7252618165
H        2.4062151234   -1.3211920647   -1.5598691221
H        2.5595803710    0.2657252509   -2.3364681039
H        3.9324238426   -0.8560231906   -2.3232614918
C       -4.1173889733   -1.4307557126    0.4180137642
H       -4.7129971417   -1.3964901236    1.3375976570
H       -4.8091032878   -1.4738307465   -0.4313092199
H       -3.5431308438   -2.3646463101    0.4254880430
28   
Iteration 9 Energy -0.18421170
C       -3.2107097732   -0.2170470631    0.3206358789
C       -3.7337883987    1.0546732667    0.0629873979
C       -2.8603234274    2.1454286517   -0.0231016287
N       -1.5301568751    2.0312600646    0.1304927030
C       -1.0135393723    0.8239625658    0.3753373150
C       -1.8213872007   -0.3241915309    0.4804305214
N        0.3726262392    0.8149167612    0.5205834533
C        1.2566368225   -0.2085652198    0.7139266442
O        0.9568309456   -1.3828653489    0.7975512816
C        2.6842698183    0.2726098871    0.7914885588
C        3.8173310073   -0.7362723551    0.7904624122
C        3.5816943927    0.1350929951   -0.4230866856
C        3.0895407509   -0.4691323653   -1.7335539084
H        2.8214278297    1.1742201892    1.3812311513
H        4.2946070700    0.9401632162   -0.5889746728
H       -4.8000705115    1.2038604660   -0.0683957395
H       -3.2388016030    3.1467882837   -0.2217116971
H       -1.3872138169   -1.2932635608    0.6864335142
H        0.7590885503    1.7355462878    0.4382943785
H        4.6867315036   -0.5241849492    1.4076941785
H        3.5647072256   -1.7922217737    0.7142156938
H        2.4103434215   -1.3141133917   -1.5670112733
H        2.5559074012    0.2797551400   -2.3306797929
H        3.9332491768   -0.8365859806   -2.3294586456
C       -4.1187805791   -1.4295026021    0.4272194578
H       -4.7151634074   -1.3890082863    1.3460463348
H       -4.8097579780   -1.4773130395   -0.4224516400
H       -3.5452999928   -2.3638039946    0.4409919767
28   
Iteration 10 Energy -0.18423231
C       -3.2128599761   -0.2169449664    0.3251797708
C       -3.7339474303    1.0523417812    0.0521636314
C       -2.8583158443    2.1406055672   -0.0432191795
N       -1.5287725274    2.0250874260    0.1152591187
C       -1.0135255466    0.8199727977    0.3736350895
C       -1.8242192731   -0.3251787093    0.4899755454
N        0.3721222212    0.8108880821    0.5240098922
C        1.2563237311   -0.2138398079    0.7096675920
O        0.9538699496   -1.3881998951    0.7819262844
C        2.6841685934    0.2657401576    0.7943082789
C        3.8144864418   -0.7464074042    0.7855926131
C        3.5848762972    0.1393030413   -0.4188868881
C        3.0950343997   -0.4509876506   -1.7367115846
H        2.8216218189    1.1599122139    1.3951597264
H        4.3027344422    0.9420650003   -0.5743140731
H       -4.7996601069    1.2016165777   -0.0835412483
H       -3.2343095454    3.1405586601   -0.2533158500
H       -1.3932679205   -1.2927714451    0.7090745085
H        0.7586857283    1.7317873293    0.4459496178
H        4.6833126172   -0.5419775051    1.4062449679
H        3.5618557570   -1.8015473151    0.6986399808
H        2.4214596346   -1.3025296082   -1.5810473160
H        2.5559516290    0.3022927241   -2.3233408363
H        3.9404399304   -0.8050926548   -2.3382790001
C       -4.1231190707   -1.4267306344    0.4429787882
H       -4.7203702837   -1.3760151451    1.3607266120
H       -4.8133106784   -1.4818673024   -0.4069008954
H       -3.5512657306   -2.3618749639    0.4666619970
28   
Iteration 11 Energy -0.18426043
C       -3.2146423573   -0.2173071320    0.3313544858
C       -3.7314542595    1.0488808667    0.0364853846
C       -2.8529832991    2.1336709682   -0.0718823470
N       -1.5243294885    2.0178954715    0.0936236877
C       -1.0129076619    0.8154001629    0.3711520658
C       -1.8268634103   -0.3257366260    0.5033577306
N        0.3718340336    0.8052141907    0.5293974637
C        1.2538443847   -0.2234019847    0.7034185817
O        0.9516083888   -1.3987514556    0.7588260665
C        2.6817511167    0.2541815358    0.7987271504
C        3.8106449684   -0.7595579908    0.7791873278
C        3.5867216308    0.1445069589   -0.4128038427
C        3.1001666251   -0.4256115464   -1.7407768778
H        2.8182251407    1.1385282520    1.4141272113
H        4.3084344107    0.9464604378   -0.5538961430
H       -4.7962486744    1.1985908097   -0.1056902829
H       -3.2260248217    3.1311514228   -0.2983626126
H       -1.3991188506   -1.2903601187    0.7410784259
H        0.7599506833    1.7259763020    0.4583008977
H        4.6780566028   -0.5646159029    1.4048780062
H        3.5587389855   -1.8134950003    0.6767329946
H        2.4351611980   -1.2865045203   -1.6002697046
H        2.5526828313    0.3333655502   -2.3121004058
H        3.9478230901   -0.7600144427   -2.3504071800
C       -4.1282056604   -1.4229753171    0.4648671787
H       -4.7269017223   -1.3576127716    1.3807391722
H       -4.8171250020   -1.4884729854   -0.3853209371
H       -3.5588395807   -2.3591987270    0.5028536100
28   
Iteration 12 Energy -0.18430457
C       -3.2166198899   -0.2177860279    0.3397872569
C       -3.7272415146    1.0434210974    0.0140256704
C       -2.8447869397    2.1230867728   -0.1123812290
N       -1.5175146621    2.0071519673    0.0634221701
C       -1.0116861326    0.8088070719    0.3679652043
C       -1.8301682970   -0.3262502634    0.5222608351
N        0.3715693082    0.7968968463    0.5378645785
C        1.2508145671   -0.2367757968    0.6946029896
O        0.9482761846   -1.4130441685    0.7246909555
C        2.6788846532    0.2372578630    0.8052725464
C        3.8063622585   -0.7777309743    0.7697468261
C        3.5888785677    0.1512581878   -0.4042484936
C        3.1059737621   -0.3900143623   -1.7455425692
H        2.8139002209    1.1082951336    1.4396598532
H        4.3132005528    0.9540674933   -0.5257450453
H       -4.7906822771    1.1934466582   -0.1375694462
H       -3.2135490441    3.1166231362   -0.3620246986
H       -1.4066175644   -1.2859769594    0.7861555058
H        0.7617412251    1.7175015943    0.4773447273
H        4.6715190232   -0.5968788249    1.4027611528
H        3.5538395813   -1.8291287883    0.6450430560
H        2.4520987291   -1.2625327556   -1.6256801815
H        2.5474374239    0.3766807328   -2.2954834883
H        3.9559801990   -0.6977760444   -2.3658441894
C       -4.1348972116   -1.4172301741    0.4952276285
H       -4.7358872310   -1.3311243616    1.4078700874
H       -4.8217979215   -1.4975008241   -0.3553364402
H       -3.5690282044   -2.3545377356    0.5537518347
28   
Iteration 13 Energy -0.18422918
C       -3.2083538415   -0.2187559953    0.3413054660
C       -3.7248365739    1.0380732231    0.0075772384
C       -2.8480151104    2.1219517212   -0.1229087187
N       -1.5205017056    2.0142624458    0.0562340655
C       -1.0109661679    0.8193809534    0.3676172213
C       -1.8218216787   -0.3199775447    0.5272303360
N        0.3714266771    0.8121695413    0.5417255139
C        1.2460393911   -0.2260845645    0.6920096664
O        0.9224015409   -1.3970081593    0.7103199594
C        2.6789610969    0.2314164279    0.8088399184
C        3.7983426162   -0.7920554730    0.7682412305
C        3.5884628878    0.1440236425   -0.4011898977
C        3.0998270207   -0.3830437011   -1.7458648377
H        2.8213656553    1.0979430964    1.4478257745
H        4.3178136620    0.9429652353   -0.5179853970
H       -4.7887720783    1.1815231310   -0.1470147654
H       -3.2216594834    3.1121137754   -0.3786144750
H       -1.3913355525   -1.2751621257    0.7973037439
H        0.7621059099    1.7329355810    0.4863415953
H        4.6641793909   -0.6233433703    1.4036333697
H        3.5350313707   -1.8396636867    0.6345250889
H        2.4384119742   -1.2505246636   -1.6308383068
H        2.5473190592    0.3923330854   -2.2896790168
H        3.9464493496   -0.6937733045   -2.3692899183
C       -4.1210920548   -1.4217961377    0.5015053196
H       -4.7237709722   -1.3340427979    1.4128817626
H       -4.8063340790   -1.5097185664   -0.3496247495
H       -3.5506790093   -2.3559352521    0.5654898944
28   
Iteration 14 Energy -0.18429020
C       -3.2122138662   -0.2183009870    0.3399074444
C       -3.7267994917    1.0411523856    0.0133305257
C       -2.8478527678    2.1236925437   -0.1136736368
N       -1.5202163452    2.0122736310    0.0622880759
C       -1.0117169597    0.8153211283    0.3674754549
C       -1.8254939638   -0.3226947456    0.5226391159
N        0.3712212288    0.8058791534    0.5379835187
C        1.2485083463   -0.2293855436    0.6937624794
O        0.9348396142   -1.4028366778    0.7210817441
C        2.6790711565    0.2365867519    0.8061338073
C        3.8012145589   -0.7841127298    0.7696628257
C        3.5889456516    0.1471565003   -0.4033324036
C        3.1033155537   -0.3895659523   -1.7453524836
H        2.8184341660    1.1060710926    1.4417452141
H        4.3173610252    0.9464226078   -0.5236948299
H       -4.7907215367    1.1876325066   -0.1384403233
H       -3.2198556103    3.1158628463   -0.3639342348
H       -1.3977283825   -1.2805450351    0.7871934090
H        0.7614643729    1.7265499755    0.4783624377
H        4.6670158419   -0.6090135258    1.4033883655
H        3.5424737030   -1.8337305076    0.6428861073
H        2.4447379638   -1.2586658529   -1.6263602883
H        2.5489144649    0.3808286472   -2.2943003355
H        3.9516656805   -0.7010669447   -2.3660440614
C       -4.1268635734   -1.4204346733    0.4959566827
H       -4.7281492176   -1.3356716676    1.4085336206
H       -4.8134626838   -1.5032692298   -0.3545954417
H       -3.5581095775   -2.3559291992    0.5549943044
28   
Iteration 15 Energy -0.18430790
C       -3.2145574390   -0.2180113678    0.3399312087
C       -3.7271173568    1.0422000582    0.0132442964
C       -2.8462351127    2.1231302689   -0.1137011809
N       -1.5188001365    2.0095148430    0.0623730693
C       -1.0120405556    0.8118187050    0.3676628159
C       -1.8280308776   -0.3247267698    0.5227819536
N        0.3710215443    0.8007085701    0.5381762888
C        1.2502089366   -0.2330473678    0.6941106333
O        0.9406758044   -1.4075666309    0.7220008190
C        2.6795638561    0.2366775005    0.8059902443
C        3.8043695833   -0.7810555384    0.7695730514
C        3.5893115647    0.1492077541   -0.4037122211
C        3.1046821658   -0.3892301618   -1.7453918857
H        2.8168109378    1.1067570796    1.4412498193
H        4.3155622946    0.9503655230   -0.5245776740
H       -4.7907794559    1.1904651755   -0.1386242906
H       -3.2164958503    3.1159321328   -0.3640396376
H       -1.4021668416   -1.2833574080    0.7874329132
H        0.7610206094    1.7214736661    0.4783807615
H        4.6698735031   -0.6034969544    1.4030177299
H        3.5482701797   -1.8313649202    0.6431773497
H        2.4484240218   -1.2600093044   -1.6258566828
H        2.5480848611    0.3795147929   -2.2944293775
H        3.9536493775   -0.6987158936   -2.3662465677
C       -4.1311664755   -1.4186476290    0.4959995687
H       -4.7323671367   -1.3328549221    1.4085365050
H       -4.8178463354   -1.5004233290   -0.3545884187
H       -3.5639263153   -2.3550513741    0.5551260027
28   
Iteration 16 Energy -0.18432226
C       -3.2151641831   -0.2178499564    0.3407914171
C       -3.7256677113    1.0418977059    0.0092211207
C       -2.8432405863    2.1213069195   -0.1199692385
N       -1.5161426608    2.0069333367    0.0582683226
C       -1.0109392986    0.8096533213    0.3677291401
C       -1.8289637113   -0.3250006448    0.5256577503
N        0.3718229897    0.7972074196    0.5406057794
C        1.2500380446   -0.2378808847    0.6933527076
O        0.9451144845   -1.4136979298    0.7167908800
C        2.6786262239    0.2333062636    0.8076000855
C        3.8058344918   -0.7815261651    0.7683751692
C        3.5881005160    0.1507692375   -0.4027058807
C        3.1035739668   -0.3842745616   -1.7457040210
H        2.8141219889    1.1022892600    1.4447426550
H        4.3114271283    0.9548450283   -0.5217188192
H       -4.7889418534    1.1909775646   -0.1446011487
H       -3.2120154581    3.1137296513   -0.3739735162
H       -1.4042281457   -1.2830594706    0.7943016643
H        0.7627146568    1.7177738216    0.4833178600
H        4.6707469076   -0.6043944716    1.4027315937
H        3.5506934698   -1.8316036153    0.6382218105
H        2.4494008585   -1.2568796377   -1.6280551996
H        2.5445947438    0.3849165481   -2.2916866929
H        3.9526419240   -0.6897773089   -2.3683850750
C       -4.1331453504   -1.4170439803    0.4998368527
H       -4.7350700357   -1.3277788177    1.4115646864
H       -4.8191045308   -1.5008671822   -0.3511276250
H       -3.5668295445   -2.3537649554    0.5624148005
28   
Iteration 17 Energy -0.18433269
C       -3.2176615055   -0.2175944141    0.3424901673
C       -3.7251955307    1.0415908395    0.0042730757
C       -2.8401194149    2.1184344839   -0.1284605220
N       -1.5135467120    2.0017632127    0.0523117408
C       -1.0116755747    0.8045961826    0.3673938988
C       -1.8320550460   -0.3275567082    0.5299025547
N        0.3706073569    0.7893652506    0.5430492044
C        1.2523981209   -0.2431876100    0.6917411881
O        0.9469419940   -1.4190112799    0.7084756390
C        2.6801156282    0.2297016910    0.8093430476
C        3.8096654979   -0.7822913645    0.7662236229
C        3.5896570920    0.1536503027   -0.4013926331
C        3.1057794224   -0.3767306358   -1.7463757248
H        2.8136711666    1.0969515287    1.4492810748
H        4.3096652259    0.9611422855   -0.5173424231
H       -4.7879467443    1.1921709499   -0.1517613214
H       -3.2062101730    3.1105710992   -0.3874110984
H       -1.4095376583   -1.2851161932    0.8041126785
H        0.7609271425    1.7103892002    0.4887486483
H        4.6736876303   -0.6063972046    1.4021027349
H        3.5552972586   -1.8319589552    0.6314382484
H        2.4540551425   -1.2515554530   -1.6316801229
H        2.5442091905    0.3932209743   -2.2886129818
H        3.9552234654   -0.6771894829   -2.3709835205
C       -4.1385742078   -1.4139250680    0.5059973046
H       -4.7411238596   -1.3192609780    1.4167694765
H       -4.8238863241   -1.4999976831   -0.3452548259
H       -3.5743692769   -2.3515684813    0.5732178989
28   
Iteration 18 Energy -0.18435014
C       -3.2171561803   -0.2177064762    0.3444370169
C       -3.7239322318    1.0397580815   -0.0011955940
C       -2.8383930159    2.1157114418   -0.1379880448
N       -1.5121344527    1.9996105046    0.0455348468
C       -1.0107065488    0.8039703192    0.3670817255
C       -1.8318690153   -0.3269041989    0.5345666834
N        0.3712021593    0.7894345169    0.5456978917
C        1.2510428786   -0.2454492987    0.6897073398
O        0.9454351742   -1.4213158562    0.6996912252
C        2.6791448979    0.2253841931    0.8110005654
C        3.8076650302   -0.7876807751    0.7634782569
C        3.5894877745    0.1547117921   -0.3993715064
C        3.1062194323   -0.3685254518   -1.7474267909
H        2.8131095471    1.0898713698    1.4545721935
H        4.3088971597    0.9634059735   -0.5105560270
H       -4.7863998796    1.1897409615   -0.1596927153
H       -3.2038310650    3.1066214119   -0.4024993465
H       -1.4101488330   -1.2830195141    0.8149179741
H        0.7621530883    1.7103615651    0.4945216969
H        4.6710131050   -0.6158275448    1.4013703894
H        3.5519538639   -1.8364588014    0.6243162032
H        2.4544625564   -1.2439768672   -1.6378815352
H        2.5448577504    0.4042987395   -2.2857863868
H        3.9559888092   -0.6655938159   -2.3732132108
C       -4.1385228189   -1.4129870469    0.5129367451
H       -4.7420191518   -1.3136490119    1.4225816556
H       -4.8229271635   -1.5031656133   -0.3386235763
H       -3.5745935675   -2.3504141033    0.5854193511
28   
Iteration 19 Energy -0.18437177
C       -3.2162763271   -0.2183160440    0.3474504665
C       -3.7216134565    1.0368598431   -0.0086024344
C       -2.8362556926    2.1121990736   -0.1515202509
N       -1.5103504404    1.9978147564    0.0355444809
C       -1.0098743798    0.8042871154    0.3662308331
C       -1.8312803520   -0.3252598747    0.5410645471
N        0.3714068851    0.7901695136    0.5491513192
C        1.2484283699   -0.2479740059    0.6864230191
O        0.9406391192   -1.4233345545    0.6868790119