28   
Iteration 0 Energy -0.17356719
C       -3.0122345400   -0.4645021000    0.7820507900
C       -3.6151205500   -0.2073867700   -0.4541238700
C       -2.8067940700   -0.0627811100   -1.5711568000
N       -1.4770003500   -0.1494835800   -1.5435643200
C       -0.9095722500   -0.3937630600   -0.3609407000
C       -1.6259324700   -0.5615943900    0.8288629300
N        0.4821128900   -0.4536160900   -0.4372156800
C        1.3935086100   -0.7090348500    0.5545642100
O        1.0838473000   -0.9843195300    1.7031044200
C        2.8348287500   -0.6100661400    0.1635706900
C        3.3677386400   -0.2325173200   -1.1942778000
C        3.4973051500    0.7384791600   -0.0642374200
C        2.7032943900    2.0185374800   -0.0531130700
H        3.4251813600   -1.3164752800    0.7391295300
H        4.4857317000    0.8211372100    0.3833152400
H       -4.6945329800   -0.1246172200   -0.5428727800
H       -3.2452844400    0.1350626800   -2.5477255500
H       -1.0928785500   -0.7673028000    1.7479499700
H        0.8142797300   -0.3412550100   -1.3843995100
H        4.2455165700   -0.7655744000   -1.5471607700
H        2.6730515100    0.0294848300   -1.9898383500
H        1.7278332300    1.8933475400   -0.5332078600
H        2.5269350700    2.3631124600    0.9715284700
H        3.2416027800    2.8075512200   -0.5896869100
C       -3.8383240100   -0.6333867200    2.0233317700
H       -4.4241589100    0.2699784400    2.2282602000
H       -4.5487357200   -1.4601199700    1.9099806900
H       -3.2122035900   -0.8386928200    2.8954707900
28   
Iteration 1 Energy -0.17546430
C       -3.0475337818   -0.4616900322    0.7794295417
C       -3.5997117744   -0.1987992646   -0.4779980917
C       -2.7447013695   -0.0612869164   -1.5623399664
N       -1.4161385360   -0.1608976951   -1.4795140301
C       -0.8849185159   -0.4109919555   -0.2798716164
C       -1.6627760253   -0.5709778107    0.8767952966
N        0.5110190679   -0.4806666953   -0.3197850649
C        1.4734448136   -0.7331328097    0.6259831751
O        1.2644057770   -1.0198015854    1.7920683783
C        2.8856385819   -0.6118936567    0.1381529989
C        3.3144320866   -0.2186617781   -1.2527885570
C        3.5098889042    0.7484664292   -0.1252509343
C        2.6996492064    2.0189304671   -0.0485156805
H        3.5262230083   -1.3123327611    0.6654603158
H        4.5257195946    0.8452836463    0.2527475566
H       -4.6736689990   -0.1059961619   -0.6095651121
H       -3.1412781082    0.1410151843   -2.5557987833
H       -1.1809541968   -0.7817081077    1.8208715501
H        0.8328065433   -0.3648953737   -1.2683399306
H        4.1731839369   -0.7360059605   -1.6707657715
H        2.5612457291    0.0372501664   -1.9950951956
H        1.6941586014    1.8847052889   -0.4596027773
H        2.5917082735    2.3537652907    0.9889960373
H        3.1880147192    2.8192945406   -0.6154740930
C       -3.9231083322   -0.6238870424    1.9899152738
H       -4.5079730585    0.2848104566    2.1730219736
H       -4.6358690611   -1.4443749742    1.8488562784
H       -3.3329118121   -0.8353190320    2.8860055570
28   
Iteration 2 Energy -0.17800627
C       -3.0606608027   -0.4714199311    0.7835182642
C       -3.6130342243   -0.2229949984   -0.4768269268
C       -2.7783722577   -0.0794214544   -1.5871126450
N       -1.4423996608   -0.1678124340   -1.5007603399
C       -0.8742129591   -0.4054109950   -0.3139831276
C       -1.6653101967   -0.5606632020    0.8402128973
N        0.5194693696   -0.4659281231   -0.3531134439
C        1.4600725574   -0.7058054728    0.6135547111
O        1.1742607593   -0.9741833236    1.7634835022
C        2.8986876820   -0.6173367442    0.1591590945
C        3.2995438879   -0.2337927433   -1.2502744616
C        3.5316011216    0.7364207778   -0.1147932000
C        2.7476625365    2.0371601754   -0.0302695091
H        3.5419604893   -1.3195781382    0.6816371187
H        4.5506559633    0.8399367379    0.2528674593
H       -4.6876663419   -0.1419144911   -0.6011067158
H       -3.1899078534    0.1131309534   -2.5765469919
H       -1.1963930278   -0.7568235289    1.7936655014
H        0.8577441884   -0.3493674340   -1.2891502676
H        4.1516548044   -0.7561365084   -1.6789093682
H        2.5357451406    0.0262965046   -1.9790526594
H        1.7317565682    1.9439953879   -0.4286132070
H        2.6663968693    2.3728487577    1.0104383782
H        3.2518793634    2.8252572234   -0.6017135984
C       -3.9289268151   -0.6352376594    2.0123517427
H       -4.5190635799    0.2702301731    2.1953518450
H       -4.6318695439   -1.4665607516    1.8842667720
H       -3.3312787113   -0.8346867576    2.9093174367
28   
Iteration 3 Energy -0.17830306
C       -3.0403157278   -0.4834111389    0.7650638179
C       -3.6264403585   -0.2359935605   -0.4816749161
C       -2.7859961325   -0.0717523174   -1.5918996778
N       -1.4456910540   -0.1437662709   -1.5046501326
C       -0.8846507687   -0.3847888559   -0.3156783777
C       -1.6408202291   -0.5598697072    0.8609079224
N        0.5066640590   -0.4332164659   -0.3503375736
C        1.4254091523   -0.6675671688    0.6353745567
O        1.1436188442   -0.9190701861    1.7875558657
C        2.8774566348   -0.6208592249    0.1840187693
C        3.2649658156   -0.2635203380   -1.2462308262
C        3.5295766226    0.7170293764   -0.1200212930
C        2.7815242017    2.0484117592   -0.0417142547
H        3.5169436759   -1.3267095444    0.7061370141
H        4.5556262626    0.8227864130    0.2270918142
H       -4.7024713983   -0.1701219574   -0.5970215518
H       -3.1989798443    0.1241664848   -2.5801197740
H       -1.1823229992   -0.7479359763    1.8219371845
H        0.8625196006   -0.2874703245   -1.2715065277
H        4.1145700955   -0.7927155437   -1.6730435969
H        2.5001773025    0.0001492655   -1.9717418458
H        1.7582382210    1.9885643969   -0.4292801337
H        2.7258414738    2.3960514720    0.9972773256
H        3.3043839291    2.8162561473   -0.6244787839
C       -3.9168748675   -0.6658660639    1.9946203807
H       -4.5164779829    0.2325688599    2.1816943157
H       -4.6051285723   -1.5085245445    1.8602544360
H       -3.3213498776   -0.8626227396    2.8950644020
28   
Iteration 4 Energy -0.17885674
C       -3.0599662630   -0.4869285118    0.7756768247
C       -3.6340802099   -0.2355210312   -0.4757333245
C       -2.7935665558   -0.0678450019   -1.5840889611
N       -1.4530914308   -0.1368969849   -1.5114236421
C       -0.8925416937   -0.3810733523   -0.3235990079
C       -1.6595870260   -0.5581293219    0.8441910491
N        0.4991772803   -0.4299043260   -0.3520785084
C        1.4253961392   -0.6651497109    0.6271208075
O        1.1407509879   -0.9166949186    1.7789979862
C        2.8790654496   -0.6172457869    0.1819759901
C        3.2952509581   -0.2633661327   -1.2426331740
C        3.5389755105    0.7181759656   -0.1175893164
C        2.7909670521    2.0481888359   -0.0530612315
H        3.5089503912   -1.3236782011    0.7144500319
H        4.5608739404    0.8211105886    0.2423169166
H       -4.7098283711   -0.1688697515   -0.5958838248
H       -3.2111270244    0.1306722215   -2.5698261438
H       -1.1906611363   -0.7485317246    1.8002646797
H        0.8529780626   -0.2793980372   -1.2742998790
H        4.1528320871   -0.7926324457   -1.6522163024
H        2.5454747361    0.0002397343   -1.9837143284
H        1.7742141845    1.9829381975   -0.4566193616
H        2.7186696301    2.3985993141    0.9837258601
H        3.3219164911    2.8151792724   -0.6293370552
C       -3.9287523564   -0.6744909247    2.0086576644
H       -4.5284971712    0.2223923418    2.2024411004
H       -4.6164223062   -1.5178053226    1.8758409999
H       -3.3273752469   -0.8731327295    2.9040427814
28   
Iteration 5 Energy -0.17889913
C       -3.0571602045   -0.4857021610    0.7783892585
C       -3.6208077961   -0.2284093774   -0.4757420577
C       -2.7867126568   -0.0577364880   -1.5870220830
N       -1.4475094722   -0.1315074881   -1.5017191747
C       -0.8876418991   -0.3797404078   -0.3142131219
C       -1.6585632225   -0.5599950751    0.8498108757
N        0.5046478944   -0.4294239847   -0.3447535139
C        1.4313501796   -0.6665009236    0.6340329675
O        1.1538347795   -0.9120388659    1.7892016644
C        2.8793277140   -0.6187472499    0.1801040230
C        3.2967231528   -0.2667805016   -1.2430552544
C        3.5334318636    0.7179453805   -0.1217598844
C        2.7742514975    2.0392867755   -0.0582814459
H        3.5095508378   -1.3242905547    0.7132767829
H        4.5570996517    0.8263688511    0.2314291681
H       -4.6966069324   -0.1593123631   -0.5960089795
H       -3.2014365564    0.1445255200   -2.5731758716
H       -1.1882671218   -0.7557230356    1.8040666709
H        0.8570382895   -0.2699090849   -1.2671268614
H        4.1593096794   -0.7879664637   -1.6518674091
H        2.5460686738   -0.0069824419   -1.9849617048
H        1.7593190401    1.9585657451   -0.4635246839
H        2.6958663967    2.3899318165    0.9778026335
H        3.2976644485    2.8113833429   -0.6344409376
C       -3.9305132954   -0.6750993933    2.0060868514
H       -4.5286646545    0.2225433846    2.2011266829
H       -4.6196875491   -1.5163016763    1.8681383547
H       -3.3319166799   -0.8781810211    2.9017857347
28   
Iteration 6 Energy -0.17893011
C       -3.0601544783   -0.4865221334    0.7745973529
C       -3.6322352424   -0.2261587920   -0.4750294014
C       -2.7889346113   -0.0541803556   -1.5789461970
N       -1.4494198237   -0.1271043494   -1.4982575065
C       -0.8866268536   -0.3779261385   -0.3128550918
C       -1.6617551999   -0.5610918919    0.8476844519
N        0.5056948571   -0.4272815512   -0.3430930249
C        1.4328939469   -0.6631345176    0.6354015805
O        1.1488543502   -0.9027880436    1.7902032850
C        2.8806029196   -0.6190132473    0.1824117654
C        3.3018047854   -0.2716389835   -1.2403557986
C        3.5349364932    0.7168477178   -0.1218225159
C        2.7752999323    2.0379820563   -0.0639726026
H        3.5087183332   -1.3244874321    0.7181588095
H        4.5593735602    0.8279214872    0.2283065563
H       -4.7079694823   -0.1566745926   -0.5958786489
H       -3.2009550472    0.1506187866   -2.5657071466
H       -1.1931351173   -0.7597975364    1.8021139585
H        0.8582227713   -0.2591492465   -1.2640807054
H        4.1686626811   -0.7887055308   -1.6452697475
H        2.5535386904   -0.0140137241   -1.9855294790
H        1.7627863179    1.9564543756   -0.4748097235
H        2.6912184323    2.3899583650    0.9711935085
H        3.3019065349    2.8094438292   -0.6380457372
C       -3.9296640786   -0.6798710281    2.0041316947
H       -4.5274753811    0.2169554183    2.2038750312
H       -4.6184756383   -1.5213535028    1.8661605064
H       -3.3277176357   -0.8850871328    2.8970135061
28   
Iteration 7 Energy -0.17895612
C       -3.0598058096   -0.4888365735    0.7767013322
C       -3.6279169844   -0.2273731691   -0.4748542442
C       -2.7865349734   -0.0534633361   -1.5804242059
N       -1.4468048009   -0.1254870956   -1.5016752772
C       -0.8899968070   -0.3776350151   -0.3138841403
C       -1.6607837824   -0.5627899725    0.8494618565
N        0.5020974911   -0.4274994126   -0.3412143090
C        1.4295278232   -0.6609487860    0.6374103086
O        1.1462604333   -0.8998002266    1.7924370745
C        2.8784702733   -0.6186802545    0.1851515750
C        3.2962845602   -0.2738538493   -1.2396831486
C        3.5346178131    0.7160847884   -0.1225672409
C        2.7811380959    2.0418366879   -0.0663649488
H        3.5066554064   -1.3247217149    0.7200717247
H        4.5604602766    0.8264031435    0.2236790478
H       -4.7034693045   -0.1581385039   -0.5967003433
H       -3.2004212105    0.1521060896   -2.5662488146
H       -1.1914120907   -0.7620750800    1.8034283812
H        0.8561152025   -0.2568174389   -1.2607702221
H        4.1630376310   -0.7907061658   -1.6453447631
H        2.5474511707   -0.0164248376   -1.9842305678
H        1.7688258407    1.9689147818   -0.4790962562
H        2.6977675435    2.3940981759    0.9688359627
H        3.3136827570    2.8102301813   -0.6391511227
C       -3.9320672624   -0.6833603583    2.0047760909
H       -4.5301987309    0.2133836646    2.2039884853
H       -4.6204540545   -1.5248431398    1.8645724513
H       -3.3325304561   -0.8894002854    2.8992939902
28   
Iteration 8 Energy -0.17896401
C       -3.0591372291   -0.4884324136    0.7768520121
C       -3.6272135893   -0.2254635886   -0.4742999423
C       -2.7868217058   -0.0513171647   -1.5804883298
N       -1.4471621988   -0.1246895612   -1.5012622232
C       -0.8880908080   -0.3780950115   -0.3146886260
C       -1.6602080983   -0.5634137196    0.8478242481
N        0.5040376426   -0.4289872865   -0.3436473108
C        1.4289121707   -0.6613709025    0.6377839556
O        1.1481230617   -0.8995919500    1.7935468502
C        2.8780524472   -0.6186835882    0.1866272865
C        3.2963261264   -0.2747048789   -1.2381103416
C        3.5331578288    0.7164029041   -0.1216999016
C        2.7781412035    2.0412183419   -0.0675821829
H        3.5060740271   -1.3243613435    0.7222109758
H        4.5590993673    0.8278957222    0.2238796890
H       -4.7027858117   -0.1553058644   -0.5954748936
H       -3.2008694485    0.1553342044   -2.5660199927
H       -1.1910957395   -0.7643554866    1.8015191274
H        0.8586350612   -0.2589995590   -1.2631158592
H        4.1643589604   -0.7898558282   -1.6432086495
H        2.5476754929   -0.0187672148   -1.9833458170
H        1.7677314404    1.9672396803   -0.4848718380
H        2.6897180485    2.3924242056    0.9675588320
H        3.3122428991    2.8107688540   -0.6373617786
C       -3.9305741392   -0.6834030930    2.0052963770
H       -4.5279237592    0.2135968721    2.2057051547
H       -4.6198159875   -1.5241304887    1.8647548962
H       -3.3305912104   -0.8907495510    2.8992169294
28   
Iteration 9 Energy -0.17897046
C       -3.0591138456   -0.4882474698    0.7774122231
C       -3.6264083897   -0.2213909551   -0.4731319951
C       -2.7866552305   -0.0460133483   -1.5794047050
N       -1.4473804360   -0.1224125171   -1.4967715525
C       -0.8876393439   -0.3791991656   -0.3111054321
C       -1.6606878082   -0.5661372486    0.8505397515
N        0.5044967504   -0.4321479354   -0.3414012808
C        1.4318337195   -0.6620604783    0.6384025832
O        1.1495729513   -0.8984138033    1.7942513679
C        2.8806794019   -0.6182397915    0.1870742019
C        3.3004633262   -0.2759593828   -1.2374394931
C        3.5332152894    0.7176271008   -0.1225251612
C        2.7741888114    2.0399478423   -0.0721779284
H        3.5089735653   -1.3227135777    0.7239222056
H        4.5590735386    0.8320912605    0.2223293119
H       -4.7019237204   -0.1492818946   -0.5938189713
H       -3.1994190856    0.1635344972   -2.5648636621
H       -1.1930767741   -0.7707604997    1.8041424664
H        0.8575162435   -0.2623462710   -1.2615827992
H        4.1711805878   -0.7878734606   -1.6408464503
H        2.5524535250   -0.0231247069   -1.9843784314
H        1.7674497976    1.9626748815   -0.4978465970
H        2.6760749027    2.3890786404    0.9627813927
H        3.3103084011    2.8121949478   -0.6363798375
C       -3.9318335025   -0.6846310100    2.0044410810
H       -4.5277936169    0.2129231092    2.2064946342
H       -4.6226049458   -1.5236404556    1.8611858675
H       -3.3329480987   -0.8952759807    2.8982958323
28   
Iteration 10 Energy -0.17897987
C       -3.0583923071   -0.4884396436    0.7774786292
C       -3.6248813730   -0.2177067070   -0.4726730200
C       -2.7835444996   -0.0409702365   -1.5775071812
N       -1.4443807511   -0.1191195240   -1.4958879216
C       -0.8862624003   -0.3793165837   -0.3102579999
C       -1.6600375042   -0.5682891061    0.8505227350
N        0.5057784772   -0.4344323101   -0.3393302360
C        1.4329113065   -0.6609610599    0.6413976188
O        1.1503877693   -0.8941832893    1.7978502047
C        2.8814657070   -0.6177121675    0.1895713075
C        3.2988760537   -0.2783899839   -1.2361970364
C        3.5318434009    0.7181538170   -0.1238699154
C        2.7706091801    2.0392069188   -0.0760354740
H        3.5106950248   -1.3209192773    0.7269893437
H        4.5582949970    0.8351726034    0.2183488527
H       -4.7001979338   -0.1437860650   -0.5940441124
H       -3.1956937104    0.1714725705   -2.5626027357
H       -1.1926925507   -0.7761670228    1.8035801166
H        0.8595021313   -0.2654472050   -1.2594100739
H        4.1704550843   -0.7886292493   -1.6398575933
H        2.5493184270   -0.0286251087   -1.9826364711
H        1.7666164410    1.9605734891   -0.5079989519
H        2.6655607397    2.3865284834    0.9588527875
H        3.3088223211    2.8132312494   -0.6357906949
C       -3.9316712977   -0.6868525530    2.0037606188
H       -4.5264817476    0.2109706208    2.2079956101
H       -4.6235771964   -1.5245160500    1.8581259454
H       -3.3333277940   -0.9006442583    2.8972242668
28   
Iteration 11 Energy -0.17899836
C       -3.0575068932   -0.4913509213    0.7788402162
C       -3.6227953250   -0.2034560081   -0.4682168129
C       -2.7784938927   -0.0178616739   -1.5696872330
N       -1.4395038950   -0.1023132003   -1.4906810379
C       -0.8843990828   -0.3778424018   -0.3071602532
C       -1.6591665162   -0.5779600530    0.8512177553
N        0.5071938275   -0.4401916012   -0.3350293473
C        1.4324964473   -0.6546381532    0.6499656312
O        1.1495754614   -0.8754363697    1.8086969442
C        2.8819836031   -0.6142144804    0.1991735412
C        3.3022312332   -0.2901848821   -1.2295975791
C        3.5288367488    0.7201235727   -0.1277609085
C        2.7629031781    2.0394273102   -0.0973793132
H        3.5117125759   -1.3110893888    0.7442063732
H        4.5545185450    0.8455876123    0.2137695488
H       -4.6976030719   -0.1234079777   -0.5898332844
H       -3.1894621675    0.2075979156   -2.5523831684
H       -1.1935294324   -0.7999911288    1.8019372635
H        0.8629011683   -0.2747513157   -1.2547398155
H        4.1787553488   -0.7984538295   -1.6250715534
H        2.5540185612   -0.0527042657   -1.9813306272
H        1.7724520838    1.9601982905   -0.5596756568
H        2.6260735648    2.3820230664    0.9354173764
H        3.3155430769    2.8171928724   -0.6375928751
C       -3.9322987570   -0.7009761171    2.0026188019
H       -4.5231512171    0.1969501489    2.2176325467
H       -4.6278834052   -1.5336939817    1.8464726022
H       -3.3354058116   -0.9283805345    2.8937894797
28   
Iteration 12 Energy -0.17901583
C       -3.0570530718   -0.4954931272    0.7803346786
C       -3.6183205743   -0.1862692014   -0.4634422107
C       -2.7712588000    0.0112338677   -1.5606366351
N       -1.4328853547   -0.0806185697   -1.4808479654
C       -0.8814333103   -0.3745586474   -0.3000562248
C       -1.6592992789   -0.5896053892    0.8534752334
N        0.5098023662   -0.4448038638   -0.3266526322
C        1.4347054326   -0.6433733344    0.6620015555
O        1.1512075580   -0.8468583477    1.8238272976
C        2.8840739090   -0.6082287939    0.2110839655
C        3.3028938526   -0.3040105349   -1.2221516372
C        3.5271882979    0.7229116762   -0.1351897087
C        2.7556455213    2.0390509595   -0.1231844434
H        3.5149752536   -1.2966685646    0.7653850919
H        4.5522470197    0.8563333825    0.2051843550
H       -4.6925265919   -0.0994132156   -0.5858530429
H       -3.1795014014    0.2525688850   -2.5406924574
H       -1.1959837487   -0.8299568562    1.8008935728
H        0.8665056079   -0.2882868474   -1.2476111365
H        4.1809948673   -0.8147993389   -1.6107636425
H        2.5531009321   -0.0808238151   -1.9767097925
H        1.7796044749    1.9563554224   -0.6148040715
H        2.5868638404    2.3778462658    0.9061365954
H        3.3205034797    2.8207657140   -0.6447226012
C       -3.9349741577   -0.7199034867    1.9991316624
H       -4.5219367287    0.1773960660    2.2270271227
H       -4.6344110743   -1.5465914071    1.8288254308
H       -3.3407324094   -0.9639962886    2.8876102776
28   
Iteration 13 Energy -0.17905052
C       -3.0578214164   -0.5090597015    0.7837147100
C       -3.6104983071   -0.1432218956   -0.4484870307
C       -2.7573364458    0.0902876179   -1.5339305228
N       -1.4202079654   -0.0174866611   -1.4525679786
C       -0.8764286523   -0.3601986148   -0.2814086420
C       -1.6612848047   -0.6189475003    0.8581972614
N        0.5137254017   -0.4478568067   -0.3060385547
C        1.4362546387   -0.6064891994    0.6918232873
O        1.1501795068   -0.7610107252    1.8605627845
C        2.8864222439   -0.5901993588    0.2425433236
C        3.3098673743   -0.3435090280   -1.2001605621
C        3.5260572147    0.7280199540   -0.1551197036
C        2.7445726426    2.0376846303   -0.1952306762
H        3.5171624823   -1.2541593464    0.8260957518
H        4.5473411031    0.8796786915    0.1889404617
H       -4.6833511819   -0.0414840253   -0.5713787662
H       -3.1593034424    0.3739608285   -2.5051990913
H       -1.2039039502   -0.9072857909    1.7951285078
H        0.8728731269   -0.3131929093   -1.2294935914
H        4.1905759778   -0.8680917732   -1.5636315483
H        2.5612162013   -0.1565951075   -1.9656169772
H        1.8046000829    1.9445607044   -0.7515271993
H        2.5037367057    2.3750401096    0.8201740454
H        3.3358855230    2.8244760730   -0.6783943805
C       -3.9431477443   -0.7769625199    1.9883882944
H       -4.5224676226    0.1154521536    2.2521991823
H       -4.6497366067   -1.5887440283    1.7801639413
H       -3.3549862665   -1.0644629412    2.8678523918
28   
Iteration 14 Energy -0.17908579
C       -3.0590607560   -0.5243400641    0.7857507551
C       -3.6047371248   -0.1029443180   -0.4316883772
C       -2.7473465888    0.1690735473   -1.5049025759
N       -1.4112550926    0.0481097993   -1.4231169923
C       -0.8731817991   -0.3425297151   -0.2644270830
C       -1.6636361763   -0.6468687056    0.8595978418
N        0.5156597382   -0.4456742329   -0.2878013724
C        1.4344114600   -0.5643674511    0.7188049409
O        1.1429357753   -0.6680618974    1.8918356313
C        2.8861515001   -0.5696657750    0.2747350970
C        3.3169938320   -0.3834757254   -1.1746018005
C        3.5270418577    0.7313465788   -0.1744704804
C        2.7400091773    2.0350628346   -0.2671775679
H        3.5146180344   -1.2067136895    0.8898613256
H        4.5436701804    0.8985359317    0.1761262374
H       -4.6765227217    0.0112194530   -0.5530948617
H       -3.1442794677    0.4944186705   -2.4651116181
H       -1.2099848213   -0.9812861376    1.7831391871
H        0.8774565331   -0.3320919795   -1.2130693787
H        4.1974335708   -0.9270805097   -1.5095754018
H        2.5714132022   -0.2310537957   -1.9506089487
H        1.8307151126    1.9283792336   -0.8703499699
H        2.4445320585    2.3804706321    0.7309853338
H        3.3497426188    2.8217465111   -0.7270460270
C       -3.9502394871   -0.8375622928    1.9751225267
H       -4.5238406255    0.0469176314    2.2756095533
H       -4.6618916687   -1.6345036270    1.7301102082
H       -3.3668125158   -1.1668579446    2.8429626878
28   
Iteration 15 Energy -0.17915676
C       -3.0597383143   -0.5402356305    0.7857396782
C       -3.6029756032   -0.0702745279   -0.4148155624
C       -2.7457525729    0.2394866876   -1.4780775313
N       -1.4101359487    0.1096976764   -1.3985968251
C       -0.8731670979   -0.3232590468   -0.2546101829
C       -1.6650210215   -0.6705164130    0.8552515922
N        0.5142114745   -0.4389043042   -0.2782789087
C        1.4264109899   -0.5218416172    0.7374793957
O        1.1245087282   -0.5789117250    1.9110997282
C        2.8812680340   -0.5486300996    0.3050809931
C        3.3252535425   -0.4197423869   -1.1462918217
C        3.5300912574    0.7325391650   -0.1887337158
C        2.7437906927    2.0324298016   -0.3306158666
H        3.5040612085   -1.1580171525    0.9531053393
H        4.5404956379    0.9104116171    0.1743966236
H       -4.6744066185    0.0521590403   -0.5313379417
H       -3.1411547132    0.6015955621   -2.4256728854
H       -1.2101359736   -1.0430256907    1.7638794208
H        0.8794595081   -0.3433467009   -1.2042518226
H        4.2019691583   -0.9875951871   -1.4491669379
H        2.5865637271   -0.2954678811   -1.9337879977
H        1.8493897476    1.9093776323   -0.9526792248
H        2.4238425905    2.4011862197    0.6515575951
H        3.3633187674    2.8093653506   -0.7939300227
C       -3.9524812262   -0.8959218805    1.9618623200
H       -4.5224864728   -0.0214511519    2.2965480604
H       -4.6669140702   -1.6802663888    1.6862489489
H       -3.3702695531   -1.2606380369    2.8161967047
28   
Iteration 16 Energy -0.17926008
C       -3.0605322353   -0.5554026567    0.7833144856
C       -3.6060894913   -0.0478441144   -0.4007960263
C       -2.7515640726    0.2939838359   -1.4564375643
N       -1.4158791521    0.1603253348   -1.3827836858
C       -0.8768771421   -0.3052418734   -0.2527973297
C       -1.6660928006   -0.6886504136    0.8462327632
N        0.5092523255   -0.4295576987   -0.2770588384
C        1.4128501608   -0.4848290899    0.7479799126
O        1.0974240419   -0.5039892839    1.9193987353
C        2.8716479902   -0.5296490138    0.3316938128
C        3.3318310099   -0.4481933241   -1.1177807459
C        3.5343457546    0.7318277859   -0.1947349813
C        2.7575558327    2.0322144220   -0.3785127737
H        3.4856317316   -1.1152736412    1.0093779128
H        4.5398692831    0.9133330596    0.1799848889
H       -4.6777285119    0.0787806799   -0.5107460974
H       -3.1486411727    0.6846940907   -2.3918931820
H       -1.2060779937   -1.0897509044    1.7405102492
H        0.8789448816   -0.3480334714   -1.2026335380
H        4.2032193836   -1.0389539809   -1.3907006455
H        2.6031656853   -0.3415524658   -1.9170803065
H        1.8510462418    1.8928206904   -0.9789915748
H        2.4588761847    2.4462910029    0.5922356974
H        3.3763603714    2.7823000099   -0.8850100612
C       -3.9507125420   -0.9467857449    1.9496286945
H       -4.5193770156   -0.0827510804    2.3125231836
H       -4.6658788783   -1.7222490847    1.6517125008
H       -3.3665737205   -1.3376602535    2.7909639546
28   
Iteration 17 Energy -0.17925926
C       -3.0642645857   -0.5902440397    0.7792989523
C       -3.6013687562    0.0276417502   -0.3555163378
C       -2.7395293793    0.4502377325   -1.3755591197
N       -1.4055173916    0.2956604038   -1.3126787680
C       -0.8760787574   -0.2655896904   -0.2225940446
C       -1.6717942623   -0.7435536955    0.8327314871
N        0.5059329499   -0.4220923014   -0.2471423040
C        1.3967042377   -0.3919969001    0.7896671282
O        1.0618968453   -0.3060432081    1.9530175531
C        2.8607461180   -0.4758188357    0.4002554241
C        3.3422754400   -0.5209565327   -1.0433657270
C        3.5378101540    0.7332690292   -0.2225212018
C        2.7688875190    2.0169547237   -0.5203195732
H        3.4630885988   -0.9958302138    1.1391834023
H        4.5380525306    0.9410294178    0.1527140628
H       -4.6711894507    0.1755633882   -0.4559188756
H       -3.1299361311    0.9241912138   -2.2746446574
H       -1.2132381049   -1.2339897502    1.6831096724
H        0.8816191055   -0.3832812236   -1.1729672977
H        4.2118067811   -1.1407764586   -1.2497090822
H        2.6272381645   -0.4782199567   -1.8606909493
H        1.8636242836    1.8320314129   -1.1102814694
H        2.4695804510    2.5147180912    0.4101158220
H        3.3938421730    2.7174148092   -1.0867748625
C       -3.9613289299   -1.0761919834    1.9034675013
H       -4.5221046803   -0.2425477882    2.3418994479
H       -4.6833803713   -1.8142994281    1.5355192854
H       -3.3833780872   -1.5470771867    2.7073045104
28   
Iteration 18 Energy -0.17943414
C       -3.0627185035   -0.5792462630    0.7768992892
C       -3.6097289558   -0.0093137665   -0.3783738846
C       -2.7543852027    0.3810576153   -1.4166123863
N       -1.4190092049    0.2392340640   -1.3559346711
C       -0.8820820577   -0.2814106265   -0.2494966180
C       -1.6688336500   -0.7208629663    0.8291356410
N        0.5013722826   -0.4251030286   -0.2709707513
C        1.3903337006   -0.4334739842    0.7678583175
O        1.0526858432   -0.3968432969    1.9330765147
C        2.8556524143   -0.4987499947    0.3789068213
C        3.3362344191   -0.4870040071   -1.0662930567
C        3.5360283467    0.7319687622   -0.1951183321
C        2.7800477896    2.0320423735   -0.4511332867
H        3.4560154827   -1.0512175326    1.0955801527
H        4.5431599263    0.9189198634    0.1725405807
H       -4.6809102741    0.1274866894   -0.4796868879
H       -3.1523428635    0.8192817649   -2.3303962707
H       -1.2025001260   -1.1697413161    1.6979668669
H        0.8796820346   -0.3719591253   -1.1948940739
H        4.2087043666   -1.0921109354   -1.3020684817
H        2.6229010841   -0.4052107935   -1.8821514102
H        1.8201029129    1.8663287483   -0.9534630686
H        2.5812151092    2.5555073898    0.4919117043
H        3.3715352685    2.7017944639   -1.0864840506
C       -3.9510350594   -1.0264646821    1.9237823238
H       -4.5168288775   -0.1802898799    2.3306314611
H       -4.6689704052   -1.7840837538    1.5888833814
H       -3.3663291960   -1.4603332906    2.7435041318
28   
Iteration 19 Energy -0.17948363
C       -3.0625884458   -0.5787776420    0.7778713066
C       -3.6041572025    0.0006799447   -0.3752800745
C       -2.7445867686    0.3929202795   -1.4095034335
N       -1.4100414083    0.2441428415   -1.3475420748
C       -0.8780849383   -0.2855882381   -0.2429634925
C       -1.6693418863   -0.7275398918    0.8314276506
N        0.5046479538   -0.4357782102   -0.2635113559
C        1.3947380147   -0.4366070866    0.7742930428
O        1.0589590044   -0.3984032557    1.9400071609