28
Properties=species:S:1:pos:R:3 Iteration=T 50=T Energy=T -611.65341469=T pbc="F F F"
C       -3.13403173      -0.22644028       0.28704700
C       -3.68904220       1.03808930       0.06340956
C       -2.84391240       2.13652066       0.01762463
N       -1.52233736       2.06633363       0.17473564
C       -1.00037469       0.85642059       0.38508014
C       -1.75606500      -0.31906540       0.44828361
N        0.38626286       0.88531247       0.53169255
C        1.26038038      -0.14998252       0.74375059
O        0.92124061      -1.32220465       0.80508715
C        2.68622724       0.29782009       0.80135943
C        3.76537837      -0.73760049       0.78305961
C        3.54131103       0.09408796      -0.44150074
C        2.96049971      -0.50836217      -1.69386574
H        2.86132476       1.21839285       1.35489234
H        4.26282484       0.89108729      -0.61150818
H       -4.75946138       1.16238732      -0.07288254
H       -3.24466222       3.13374427      -0.15575118
H       -1.25780873      -1.26480532       0.61661390
H        0.76255221       1.82076380       0.45006805
H        4.64912263      -0.56266178       1.38898707
H        3.41375838      -1.76547385       0.75863618
H        2.22319281      -1.28032931      -1.45312493
H        2.46631889       0.25210260      -2.30950914
H        3.74865926      -0.97111235      -2.29790838
C       -4.00044669      -1.44880459       0.36660602
H       -4.60249800      -1.43680615       1.28307516
H       -4.69715986      -1.49606975      -0.47728055
H       -3.40125432      -2.36313800       0.37091967
