28
Properties=species:S:1:pos:R:3 Iteration=T 38=T Energy=T -611.65521451=T pbc="F F F"
C       -3.05485101      -0.55072407       0.86513970
C       -3.53284834      -1.75685268       0.34137381
C       -2.72694350      -2.46620350      -0.53590340
N       -1.51276070      -2.07050811      -0.91696844
C       -1.06292641      -0.92017199      -0.41209230
C       -1.78973375      -0.12263379       0.47869823
N        0.21374187      -0.59567912      -0.87153463
C        1.00435893       0.47821545      -0.55027674
O        0.66252159       1.35636252       0.23058150
C        2.32603600       0.47095530      -1.23646291
C        3.07117524       1.77910670      -1.32085171
C        3.59770452       0.71028285      -0.42802815
C        3.58211630       0.84911570       1.07093126
H        2.42237983      -0.21322825      -2.07587847
H        4.44781891       0.15437542      -0.82042333
H       -4.51508215      -2.13424829       0.61113612
H       -3.07013022      -3.40743760      -0.96187198
H       -1.35778062       0.79946250       0.84491101
H        0.57551528      -1.29043065      -1.51129061
H        3.58716372       2.00615525      -2.24890288
H        2.56731844       2.61532677      -0.84383462
H        2.68931811       1.38284606       1.40408902
H        3.59673569      -0.13232884       1.55828163
H        4.46548206       1.40450105       1.40563102
C       -3.88069516       0.25880974       1.82140988
H       -4.85862843       0.49891350       1.38943087
H       -4.06446930      -0.29956518       2.74660218
H       -3.38252431       1.19577574       2.08369211
