28   
Iteration 0 Energy -0.17391501
C       -3.0064751700   -0.2750375500    1.1293332900
C       -3.8132845000   -0.6263326800    0.0415505200
C       -3.2042426600   -0.9538841400   -1.1602939200
N       -1.8848611400   -0.9570697300   -1.3496389000
C       -1.1223929600   -0.6228076400   -0.3070897600
C       -1.6277426800   -0.2740258200    0.9502102300
N        0.2408030500   -0.6573639100   -0.6004545100
C        1.3132140400   -0.3997420900    0.2135870400
O        1.2205872600   -0.0672196000    1.3834066700
C        2.6368493500   -0.6200639200   -0.4659299100
C        2.9923184400    0.0363196300   -1.7736218500
C        3.6617577900    0.4748542700   -0.4979129100
C        3.3646253700    1.8308753000    0.0863142600
H        3.0144533400   -1.6286282200   -0.3045129800
H        4.6883065100    0.1394701900   -0.3646016100
H       -4.8956395500   -0.6441241900    0.1316617200
H       -3.8043253300   -1.2311989700   -2.0252321700
H       -0.9430636800   -0.0161220200    1.7477719400
H        0.4313272500   -0.9257056400   -1.5569536900
H        3.5559822800   -0.5359599600   -2.5047563900
H        2.2686603900    0.7257247600   -2.2043154200
H        2.3453934400    2.1526244300   -0.1524051300
H        3.4528746500    1.8169800000    1.1767993600
H        4.0551169200    2.5815349400   -0.3135431400
C       -3.6109359700    0.0954777700    2.4517809200
H       -4.2129297400    1.0073654000    2.3631731600
H       -4.2754735100   -0.6960884700    2.8156111800
H       -2.8408929200    0.2703475700    3.2076614400
28   
Iteration 1 Energy -0.17544318
C       -3.0687467108   -0.2866614535    1.1370828421
C       -3.8260798412   -0.6393429465    0.0158872322
C       -3.1618625690   -0.9498228224   -1.1626872959
N       -1.8335211287   -0.9338207658   -1.2946631006
C       -1.1061771653   -0.5993373026   -0.2256078872
C       -1.6821947542   -0.2678891432    1.0104669315
N        0.2681989562   -0.6194748780   -0.4813917664
C        1.3799934574   -0.3765943409    0.2854200973
O        1.3877308276   -0.0487703202    1.4583913761
C        2.6557443046   -0.6143484331   -0.4763884343
C        2.9385351200    0.0444794053   -1.8014670046
C        3.6956920816    0.4661100915   -0.5677760352
C        3.4601384735    1.8262332772    0.0410029330
H        3.0270808820   -1.6288167070   -0.3439626108
H        4.7233961176    0.1149584845   -0.5002732982
H       -4.9106411844   -0.6717344607    0.0606352237
H       -3.7209383773   -1.2281777746   -2.0543888530
H       -1.0464792289   -0.0059116152    1.8442565804
H        0.4498792310   -0.8819968129   -1.4392340651
H        3.4465079504   -0.5331241672   -2.5686953067
H        2.2003718889    0.7471735214   -2.1831995956
H        2.4336164547    2.1681536478   -0.1302819905
H        3.6180915044    1.8043701932    1.1239218162
H        4.1371058082    2.5671462404   -0.3985399773
C       -3.7311710300    0.0666149416    2.4389520165
H       -4.3404800525    0.9717267069    2.3327850848
H       -4.3993512309   -0.7362800697    2.7700859407
H       -2.9944295165    0.2453372141    3.2272686008
28   
Iteration 2 Energy -0.17730089
C       -3.0693297136   -0.2797596786    1.1438779253
C       -3.8378980139   -0.6400477959    0.0327917281
C       -3.2117989226   -0.9757477561   -1.1699313339
N       -1.8774309080   -0.9686487448   -1.3120347958
C       -1.1026459416   -0.6317337333   -0.2755935999
C       -1.6818542867   -0.2834225771    0.9599646661
N        0.2663596499   -0.6620347961   -0.5469666830
C        1.3576420623   -0.4060577585    0.2378373124
O        1.2993695328   -0.0784716518    1.4063766758
C        2.6655164582   -0.6262605845   -0.4810878156
C        2.9658673197    0.0562433902   -1.7971481412
C        3.7014984463    0.4764242211   -0.5424872006
C        3.4617157948    1.8466977228    0.0727486561
H        3.0530059651   -1.6322152440   -0.3511166735
H        4.7351403584    0.1498707464   -0.4482129591
H       -4.9206034607   -0.6618342287    0.0957641924
H       -3.7937245556   -1.2585808449   -2.0456045057
H       -1.0524824418   -0.0114459265    1.7949036557
H        0.4491434517   -0.9343814659   -1.4947822477
H        3.5073518942   -0.5106005944   -2.5508688354
H        2.2282382028    0.7489215674   -2.1973792292
H        2.4407374101    2.2047696147   -0.1069595539
H        3.6122713069    1.8155588738    1.1585760639
H        4.1513527780    2.5865748676   -0.3499459115
C       -3.7079121390    0.0954412520    2.4645523331
H       -4.3091255208    1.0061133287    2.3603466045
H       -4.3729776455   -0.7014887281    2.8170449093
H       -2.9574167385    0.2763162133    3.2429343216
28   
Iteration 3 Energy -0.17764325
C       -3.0331191186   -0.2722955590    1.1174282281
C       -3.8373223204   -0.6362500502    0.0312034032
C       -3.2151314537   -0.9984327776   -1.1725869086
N       -1.8778739007   -1.0074200982   -1.3196685053
C       -1.1044640438   -0.6614421311   -0.2857972756
C       -1.6363066235   -0.2809727738    0.9632553222
N        0.2609596927   -0.7055161077   -0.5582087990
C        1.3409597737   -0.4381702275    0.2325683234
O        1.2850012043   -0.1071976263    1.3984891777
C        2.6546465542   -0.6407191782   -0.4843007182
C        2.9287997672    0.0786818853   -1.7926746552
C        3.6787693598    0.4820370132   -0.5374481812
C        3.4420413513    1.8473792664    0.1081204877
H        3.0595154541   -1.6413103514   -0.3789449496
H        4.7212147302    0.1810612683   -0.4561973287
H       -4.9187208723   -0.6416141293    0.1073358719
H       -3.8038577956   -1.2879921516   -2.0415475332
H       -1.0109518564    0.0019972900    1.7986385479
H        0.4465021901   -0.9927987389   -1.4970068429
H        3.4806766894   -0.4635282735   -2.5576258526
H        2.1777750607    0.7656039332   -2.1773491454
H        2.4166341127    2.2067321949   -0.0457439772
H        3.6186443967    1.7957912763    1.1902517613
H        4.1230231597    2.5985048556   -0.3095031217
C       -3.6724818125    0.1270135773    2.4394924111
H       -4.2633292161    1.0430502345    2.3241687356
H       -4.3404129689   -0.6627495829    2.8030779782
H       -2.9211810325    0.3107567141    3.2181732360
28   
Iteration 4 Energy -0.17801893
C       -3.0419564804   -0.2662524682    1.1250608224
C       -3.8326601242   -0.6342592705    0.0303053987
C       -3.2018770182   -0.9979358439   -1.1663678413
N       -1.8682704120   -1.0150614409   -1.3306746090
C       -1.1021061373   -0.6674224519   -0.2932407080
C       -1.6499189862   -0.2859791023    0.9463731041
N        0.2661263848   -0.7102614619   -0.5521743359
C        1.3499501061   -0.4423032022    0.2347484304
O        1.2982914343   -0.1095156196    1.4009638913
C        2.6604254043   -0.6410752446   -0.4866248920
C        2.9283754485    0.0835870740   -1.7929521089
C        3.6773291970    0.4834580240   -0.5391003848
C        3.4282475650    1.8392200894    0.1138224728
H        3.0655943529   -1.6431566552   -0.3870387309
H        4.7211380739    0.1850377973   -0.4662779079
H       -4.9151375038   -0.6408112798    0.0971260106
H       -3.7924699741   -1.2882235659   -2.0337540579
H       -1.0106413427   -0.0047918977    1.7727419118
H        0.4560522946   -0.9993603980   -1.4916927980
H        3.4798503310   -0.4498212227   -2.5637635371
H        2.1732469365    0.7703847698   -2.1698952438
H        2.3976410367    2.1827758948   -0.0376030326
H        3.6067597388    1.7848508663    1.1947052250
H        4.0989728035    2.6003205727   -0.3017815691
C       -3.6730810868    0.1380802995    2.4467948440
H       -4.2612860183    1.0559646854    2.3324445397
H       -4.3421291335   -0.6478099616    2.8162305148
H       -2.9164565099    0.3205607843    3.2192242917
28   
Iteration 5 Energy -0.17803678
C       -3.0433377317   -0.2664236203    1.1275932572
C       -3.8238373870   -0.6356289852    0.0270543508
C       -3.2025318994   -0.9996464572   -1.1730911678
N       -1.8667204995   -1.0101683269   -1.3175385630
C       -1.1015189343   -0.6631880511   -0.2786980348
C       -1.6514384818   -0.2828921524    0.9600167839
N        0.2666320443   -0.7075402508   -0.5418172796
C        1.3561459810   -0.4406091061    0.2390656967
O        1.3056809110   -0.1083642349    1.4056878092
C        2.6634222321   -0.6393768487   -0.4877168955
C        2.9267264996    0.0850268552   -1.7947981329
C        3.6807071289    0.4830010179   -0.5449621197
C        3.4343126912    1.8367654659    0.1095390735
H        3.0648695741   -1.6437783575   -0.3925839357
H        4.7241928192    0.1814874694   -0.4807358963
H       -4.9064941851   -0.6425311809    0.0941696860
H       -3.7891719054   -1.2900753254   -2.0430927468
H       -1.0144794545   -0.0023818971    1.7880919467
H        0.4524820167   -0.9958287169   -1.4834336326
H        3.4741377462   -0.4466843148   -2.5694406514
H        2.1709375490    0.7738917017   -2.1667558951
H        2.4024176346    2.1781798446   -0.0363783040
H        3.6184056854    1.7828266279    1.1891895128
H        4.1017206588    2.5984122389   -0.3101493650
C       -3.6838821958    0.1356729927    2.4437538537
H       -4.2730130166    1.0525423816    2.3260281952
H       -4.3542211943   -0.6512798906    2.8083665033
H       -2.9321339336    0.3187908848    3.2202357135
28   
Iteration 6 Energy -0.17808565
C       -3.0432241422   -0.2672173876    1.1240456284
C       -3.8321621509   -0.6353659512    0.0291400297
C       -3.2054504381   -0.9991415232   -1.1685404761
N       -1.8700481877   -1.0116099022   -1.3184945696
C       -1.1001073069   -0.6651064515   -0.2830658991
C       -1.6511899138   -0.2843010995    0.9551377237
N        0.2675406231   -0.7103177614   -0.5481710229
C        1.3537073213   -0.4417166572    0.2365783823
O        1.3009283530   -0.1090488915    1.4028644162
C        2.6632613762   -0.6395887629   -0.4867150895
C        2.9289410687    0.0850148014   -1.7933852503
C        3.6803054744    0.4837593304   -0.5420200819
C        3.4326476700    1.8380905088    0.1117822433
H        3.0650662326   -1.6436586577   -0.3908815878
H        4.7238959760    0.1830934184   -0.4755934760
H       -4.9146778855   -0.6416844453    0.0976733667
H       -3.7921471889   -1.2899264498   -2.0383917063
H       -1.0150910244   -0.0032949525    1.7836077564
H        0.4543585659   -0.9989048315   -1.4892729207
H        3.4787673752   -0.4464559197   -2.5665468039
H        2.1735977063    0.7732834403   -2.1673558758
H        2.4010646771    2.1799599610   -0.0357078663
H        3.6151662589    1.7843735859    1.1917963970
H        4.1008378130    2.5995968971   -0.3069744819
C       -3.6782076983    0.1365343789    2.4427032692
H       -4.2664877937    1.0541684005    2.3267345521
H       -4.3480872370   -0.6494151775    2.8103553698
H       -2.9231951598    0.3190798630    3.2162977296
28   
Iteration 7 Energy -0.17809292
C       -3.0414173027   -0.2662787215    1.1237789995
C       -3.8300365295   -0.6348216576    0.0283854631
C       -3.2032094414   -1.0010717368   -1.1690550093
N       -1.8681831651   -1.0169531410   -1.3231381067
C       -1.1011909887   -0.6694956634   -0.2861024473
C       -1.6490013073   -0.2859449641    0.9528608758
N        0.2667143958   -0.7154273801   -0.5481644231
C        1.3513334420   -0.4444365535    0.2373404265
O        1.2985795900   -0.1104161449    1.4031116406
C        2.6616986257   -0.6403591945   -0.4854911798
C        2.9235694163    0.0870609805   -1.7918931021
C        3.6780646869    0.4845336190   -0.5416871315
C        3.4332744849    1.8390937273    0.1144521811
H        3.0638151254   -1.6445032537   -0.3938053714
H        4.7224936324    0.1860715868   -0.4786340787
H       -4.9125303723   -0.6397254817    0.0959208574
H       -3.7917616396   -1.2918397189   -2.0376635081
H       -1.0121842394   -0.0046376165    1.7807636795
H        0.4550807234   -1.0051525960   -1.4881921864
H        3.4740104055   -0.4418676397   -2.5664629065
H        2.1669616979    0.7749541731   -2.1639713907
H        2.4013198002    2.1823299866   -0.0278539505
H        3.6212552564    1.7841703071    1.1936064510
H        4.1001935340    2.6007149646   -0.3062191888
C       -3.6764708335    0.1396383994    2.4425659696
H       -4.2632163044    1.0581251694    2.3256086239
H       -4.3472748311   -0.6453666994    2.8106348339
H       -2.9218774830    0.3218050175    3.2169038076
28   
Iteration 8 Energy -0.17809977
C       -3.0423653511   -0.2664205138    1.1234154224
C       -3.8307141016   -0.6346483638    0.0278859043
C       -3.2034514453   -1.0011238286   -1.1690196774
N       -1.8681820352   -1.0169498057   -1.3206069451
C       -1.1004987489   -0.6699942534   -0.2838582657
C       -1.6500008094   -0.2863878368    0.9542660875
N        0.2674554737   -0.7168387233   -0.5462070763
C        1.3529108711   -0.4448136222    0.2380599492
O        1.2993677536   -0.1096908797    1.4035162817
C        2.6631545012   -0.6400848041   -0.4850836188
C        2.9229998123    0.0877062136   -1.7917036828
C        3.6789581586    0.4849044786   -0.5426309136
C        3.4346406104    1.8388932117    0.1141807178
H        3.0642000374   -1.6449508558   -0.3959178094
H        4.7236613383    0.1867981377   -0.4825060757
H       -4.9132671281   -0.6390963278    0.0950579617
H       -3.7909839958   -1.2918127535   -2.0383423158
H       -1.0140073240   -0.0053685797    1.7828670195
H        0.4552330739   -1.0068769158   -1.4864301360
H        3.4731666470   -0.4398126831   -2.5673923270
H        2.1658193080    0.7757565847   -2.1623503479
H        2.4019135305    2.1808402381   -0.0253323635
H        3.6256442188    1.7841953045    1.1927598568
H        4.0995883107    2.6011988597   -0.3083309595
C       -3.6779873271    0.1397273388    2.4415662910
H       -4.2640429565    1.0586215039    2.3243398881
H       -4.3495377790   -0.6448415130    2.8091733463
H       -2.9236642844    0.3212701536    3.2162236531
28   
Iteration 9 Energy -0.17810178
C       -3.0423038561   -0.2664970055    1.1230687770
C       -3.8301018937   -0.6335921200    0.0268596523
C       -3.2029789141   -1.0003217555   -1.1699076895
N       -1.8675354558   -1.0170560713   -1.3196812710
C       -1.0994364666   -0.6712983580   -0.2827976707
C       -1.6499893988   -0.2877847049    0.9548672598
N        0.2685831399   -0.7197255478   -0.5449799824
C        1.3531187806   -0.4449923178    0.2398181255
O        1.3006962173   -0.1069129607    1.4044798203
C        2.6635149023   -0.6399026405   -0.4830992890
C        2.9206633110    0.0876759177   -1.7904602088
C        3.6786350274    0.4853536424   -0.5430286741
C        3.4350937120    1.8392175797    0.1138912125
H        3.0628997117   -1.6457467763   -0.3972553016
H        4.7237799810    0.1881026093   -0.4864646691
H       -4.9127054803   -0.6369884316    0.0935359786
H       -3.7900648345   -1.2901942392   -2.0398037269
H       -1.0143250416   -0.0079323656    1.7840841045
H        0.4568022611   -1.0104865843   -1.4849745699
H        3.4707412946   -0.4383906345   -2.5671845401
H        2.1627733203    0.7756749262   -2.1597817423
H        2.4012107081    2.1793089641   -0.0214084361
H        3.6308667566    1.7855700411    1.1916379440
H        4.0969912545    2.6022858780   -0.3120045626
C       -3.6783424209    0.1397192110    2.4408425683
H       -4.2628961517    1.0595892257    2.3237641814
H       -4.3513617584   -0.6440571084    2.8074398732
H       -2.9243183483    0.3195813872    3.2161427191
28   
Iteration 10 Energy -0.17810352
C       -3.0431570787   -0.2671148548    1.1230827900
C       -3.8305975862   -0.6321775768    0.0259060997
C       -3.2022720632   -0.9981494407   -1.1704454760
N       -1.8667723140   -1.0160827061   -1.3193003321
C       -1.0994483310   -0.6720135284   -0.2813077179
C       -1.6506800815   -0.2894815438    0.9563418136
N        0.2687818502   -0.7215925376   -0.5420906395
C        1.3539380245   -0.4446085825    0.2410704559
O        1.2994358647   -0.1033513878    1.4047229162
C        2.6647531214   -0.6397003988   -0.4811408094
C        2.9199716946    0.0867323067   -1.7896472629
C        3.6794813133    0.4857635511   -0.5437284605
C        3.4368224130    1.8403149188    0.1120181476
H        3.0625688009   -1.6463550834   -0.3976200261
H        4.7249726594    0.1893056823   -0.4894945108
H       -4.9132668929   -0.6346442159    0.0915140671
H       -3.7887629877   -1.2865707761   -2.0412251188
H       -1.0155541972   -0.0114132150    1.7865740023
H        0.4569667082   -1.0132294841   -1.4818189854
H        3.4701691177   -0.4388682331   -2.5666085986
H        2.1616993824    0.7744753494   -2.1586841251
H        2.4019812349    2.1789011390   -0.0196915737
H        3.6369657494    1.7885877600    1.1890536513
H        4.0960430862    2.6035690592   -0.3176815638
C       -3.6799689845    0.1381635554    2.4407580656
H       -4.2629185696    1.0591429098    2.3244036727
H       -4.3546273828   -0.6450793173    2.8054807788
H       -2.9265142003    0.3156764074    3.2171586395
28   
Iteration 11 Energy -0.17810463
C       -3.0432251359   -0.2677773748    1.1234956038
C       -3.8304577921   -0.6308509718    0.0254687345
C       -3.2019750978   -0.9953275595   -1.1713138967
N       -1.8664782586   -1.0136983939   -1.3201925543
C       -1.0995325514   -0.6712529283   -0.2813791763
C       -1.6506785690   -0.2904792908    0.9568776677
N        0.2687590042   -0.7211412187   -0.5416281217
C        1.3534324798   -0.4431575419    0.2417851928
O        1.2988596766   -0.1001750717    1.4049222285
C        2.6644800265   -0.6395701434   -0.4796750971
C        2.9206148961    0.0846255926   -1.7892224817
C        3.6795194664    0.4856409908   -0.5434864145
C        3.4367072876    1.8414762473    0.1097133454
H        3.0620210890   -1.6461865346   -0.3945730597
H        4.7248855936    0.1890222630   -0.4877611089
H       -4.9131404686   -0.6329870661    0.0907408602
H       -3.7884930753   -1.2822277902   -2.0425781893
H       -1.0155541844   -0.0140882331    1.7876751624
H        0.4573511013   -1.0133179416   -1.4810621839
H        3.4709899450   -0.4426479209   -2.5649324060
H        2.1627480660    0.7719349111   -2.1598927010
H        2.4018203630    2.1797394668   -0.0225254950
H        3.6368868866    1.7918103393    1.1868505783
H        4.0957460837    2.6040156771   -0.3215381351
C       -3.6802230685    0.1357295455    2.4416814472
H       -4.2624967318    1.0573034746    2.3266591525
H       -4.3556164415   -0.6476254170    2.8048060595
H       -2.9269402471    0.3114126375    3.2186849030
28   
Iteration 12 Energy -0.17810904
C       -3.0441978549   -0.2717629835    1.1256329644
C       -3.8300022980   -0.6219135906    0.0222837051
C       -3.2000924101   -0.9774835691   -1.1765872984
N       -1.8644307184   -0.9990292785   -1.3236576055
C       -1.0993033899   -0.6674368467   -0.2799609639
C       -1.6512745099   -0.2973577840    0.9612425191
N        0.2694237808   -0.7204321242   -0.5368466588
C        1.3520091742   -0.4352529955    0.2466970069
O        1.2961215922   -0.0805872747    1.4062532674
C        2.6643755684   -0.6388027717   -0.4704373749
C        2.9238257051    0.0722541068   -1.7864651112
C        3.6801571382    0.4854763789   -0.5429296215
C        3.4361972058    1.8484099412    0.0953684823
H        3.0602681361   -1.6452974458   -0.3770592227
H        4.7251577677    0.1889042080   -0.4805962088
H       -4.9128130921   -0.6212419312    0.0850824153
H       -3.7859754373   -1.2546553786   -2.0514219615
H       -1.0167945189   -0.0319142250    1.7961078155
H        0.4599716703   -1.0167481255   -1.4744611512
H        3.4753412377   -0.4635931277   -2.5554860562
H        2.1673833455    0.7563965861   -2.1657994775
H        2.4002909311    2.1832089507   -0.0378530798
H        3.6391195885    1.8114626416    1.1725302309
H        4.0922962170    2.6073648202   -0.3465722248
C       -3.6827801777    0.1211063045    2.4464114247
H       -4.2599293148    1.0468707704    2.3394986880
H       -4.3635059233   -0.6623545795    2.7992197284
H       -2.9308290830    0.2846090749    3.2274057754
28   
Iteration 13 Energy -0.17812201
C       -3.0471578767   -0.2820419307    1.1308522838
C       -3.8290178720   -0.5979800926    0.0142727622
C       -3.1950290027   -0.9304259994   -1.1893441443
N       -1.8588716625   -0.9604794297   -1.3305471748
C       -1.0981836704   -0.6578413319   -0.2748118712
C       -1.6533840241   -0.3156753112    0.9730532691
N        0.2715918831   -0.7196977174   -0.5232166751
C        1.3495768537   -0.4153410653    0.2591615825
O        1.2897070331   -0.0306672549    1.4088976048
C        2.6651414007   -0.6364750431   -0.4468993061
C        2.9319808280    0.0407599678   -1.7791038948
C        3.6819398307    0.4856251732   -0.5422711884
C        3.4346902074    1.8656997830    0.0576084364
H        3.0580344083   -1.6417461477   -0.3310211387
H        4.7261765748    0.1901869815   -0.4639796405
H       -4.9121194426   -0.5894839568    0.0706192080
H       -3.7785655707   -1.1819454006   -2.0734511373
H       -1.0211900874   -0.0792319022    1.8183401385
H        0.4665697390   -1.0274951237   -1.4560028145
H        3.4865800004   -0.5159674054   -2.5309207600
H        2.1783260450    0.7155937495   -2.1800513561
H        2.3961707932    2.1913897493   -0.0780557017
H        3.6446357573    1.8613097050    1.1340850294
H        4.0832823184    2.6149137026   -0.4112366844
C       -3.6902395707    0.0831282669    2.4576267327
H       -4.2537542053    1.0194568321    2.3721102585
H       -4.3847728287   -0.6998844366    2.7835149851
H       -2.9421075475    0.2145153940    3.2483714019
28   
Iteration 14 Energy -0.17812171
C       -3.0508579605   -0.2833211206    1.1306749261
C       -3.8326920270   -0.5945610346    0.0130977549
C       -3.1960565228   -0.9245292034   -1.1895178102
N       -1.8592174346   -0.9553489515   -1.3247936771
C       -1.0969363499   -0.6573525391   -0.2688323127
C       -1.6570109451   -0.3183676522    0.9775757925
N        0.2731036706   -0.7214891561   -0.5161458361
C        1.3551865762   -0.4152166123    0.2601216513
O        1.2905755153   -0.0280650905    1.4087907815
C        2.6703503989   -0.6364207276   -0.4465459220
C        2.9345356308    0.0388781433   -1.7803957987
C        3.6850930899    0.4867551527   -0.5454646814
C        3.4367288326    1.8671490392    0.0523077428
H        3.0657532625   -1.6403366919   -0.3268038609
H        4.7298886803    0.1928387891   -0.4688510205
H       -4.9159041220   -0.5843938745    0.0679309056
H       -3.7767137164   -1.1729997907   -2.0763765796
H       -1.0276886934   -0.0855215763    1.8259804596
H        0.4660338803   -1.0320149552   -1.4486850217
H        3.4894900239   -0.5174870010   -2.5321596113
H        2.1788952170    0.7114737438   -2.1813914211
H        2.3976758248    2.1909992050   -0.0833206288
H        3.6478055975    1.8648888006    1.1284999023
H        4.0843263801    2.6162930921   -0.4179831122
C       -3.6954829350    0.0789908590    2.4571784383
H       -4.2568434800    1.0167988847    2.3737165940
H       -4.3918181057   -0.7037891151    2.7797169946
H       -2.9482100018    0.2063491130    3.2492755368
28   
Iteration 15 Energy -0.17813046
C       -3.0487059520   -0.2828885637    1.1305344150
C       -3.8315697987   -0.5939767912    0.0135865963
C       -3.1968722535   -0.9245277811   -1.1899018495
N       -1.8602485598   -0.9561147828   -1.3268373408
C       -1.0971701281   -0.6582670545   -0.2714770889
C       -1.6550773572   -0.3187497071    0.9756563057
N        0.2725795363   -0.7230007366   -0.5197114328
C        1.3528681241   -0.4158923357    0.2586376321
O        1.2869172480   -0.0285047933    1.4071593243
C        2.6692195660   -0.6366174449   -0.4459202876
C        2.9351395266    0.0385607250   -1.7794731917
C        3.6835567883    0.4870028879   -0.5434583980
C        3.4336063247    1.8673598354    0.0536842421
H        3.0649337241   -1.6403126951   -0.3253330143
H        4.7283735296    0.1935965333   -0.4651830916
H       -4.9147158732   -0.5832363629    0.0696260266
H       -3.7788652829   -1.1727997811   -2.0759397143
H       -1.0242085240   -0.0861752603    1.8230342554
H        0.4661604153   -1.0337090301   -1.4520747865
H        3.4915311227   -0.5176535531   -2.5302832182
H        2.1797887480    0.7107140019   -2.1817567419
H        2.3946124655    2.1906858888   -0.0836274532
H        3.6430098586    1.8653866397    1.1302008390
H        4.0815885727    2.6167304124   -0.4157138790
C       -3.6918003775    0.0799474568    2.4576291784
H       -4.2527744672    1.0180244661    2.3745892982
H       -4.3881916452   -0.7024396705    2.7809975113
H       -2.9436750439    0.2070572263    3.2489560508
28   
Iteration 16 Energy -0.17812185
C       -3.0477853505   -0.2828796511    1.1309530156
C       -3.8274636859   -0.5937439977    0.0115488889
C       -3.1924137939   -0.9236951064   -1.1918990786
N       -1.8559411142   -0.9555160770   -1.3288174845
C       -1.0964820941   -0.6577768647   -0.2710044657
C       -1.6540141154   -0.3188689633    0.9764088484
N        0.2736637925   -0.7221260023   -0.5169993486
C        1.3516705583   -0.4137718699    0.2640477481
O        1.2967909171   -0.0253629483    1.4128043268
C        2.6656863843   -0.6362707235   -0.4441244964
C        2.9283856310    0.0380251748   -1.7786836457
C        3.6809016393    0.4861741905   -0.5450224646
C        3.4342531150    1.8670034936    0.0523471734
H        3.0607988622   -1.6402519240   -0.3240046093
H        4.7256370535    0.1916826880   -0.4697495966
H       -4.9106918347   -0.5832521341    0.0658915031
H       -3.7742673981   -1.1713633637   -2.0781955208
H       -1.0229949722   -0.0870040555    1.8238904894
H        0.4693873501   -1.0328257919   -1.4489354205
H        3.4820323154   -0.5190257710   -2.5309038633
H        2.1725149466    0.7107565698   -2.1790253910
H        2.3952530961    2.1915447562   -0.0820644040
H        3.6467897577    1.8651598423    1.1282534000
H        4.0817783598    2.6154516419   -0.4191531136
C       -3.6931059074    0.0790145356    2.4572436674
H       -4.2541153336    1.0170392235    2.3738455454
H       -4.3898629221   -0.7037192207    2.7789852701
H       -2.9463949830    0.2058020803    3.2499632064
28   
Iteration 17 Energy -0.17813286
C       -3.0471530863   -0.2827428736    1.1308349852
C       -3.8282208806   -0.5933234530    0.0123531621
C       -3.1939688842   -0.9235421962   -1.1914318739
N       -1.8575885652   -0.9558514073   -1.3294048603
C       -1.0968876465   -0.6583571311   -0.2723972966
C       -1.6535329858   -0.3192059685    0.9753233267
N        0.2730468490   -0.7231737304   -0.5192953502
C        1.3509662042   -0.4146533561    0.2617684792
O        1.2918546106   -0.0262123634    1.4103182020
C        2.6662996386   -0.6364595960   -0.4442306674
C        2.9307911331    0.0378302414   -1.7784597367
C        3.6810210792    0.4865812918   -0.5436581548
C        3.4326101222    1.8673460953    0.0531070500
H        3.0618235190   -1.6401815231   -0.3232794833
H        4.7258046589    0.1927063584   -0.4666686336
H       -4.9114002468   -0.5824212348    0.0676213293
H       -3.7765072324   -1.1710799042   -2.0773152164
H       -1.0218031222   -0.0875080211    1.8223344327
H        0.4684633425   -1.0340624710   -1.4512424706
H        3.4860057400   -0.5189807642   -2.5296992699
H        2.1751720416    0.7100559678   -2.1801259706
H        2.3936463264    2.1912701290   -0.0830484267
H        3.6434031250    1.8657823496    1.1293548563
H        4.0804817818    2.6160940371   -0.4174386410
C       -3.6910884383    0.0794868161    2.4576901752
H       -4.2517936014    1.0177349493    2.3747604488
H       -4.3878539489   -0.7029501026    2.7801330159
H       -2.9435812617    0.2060175922    3.2496967675
28   
Iteration 18 Energy -0.17814068
C       -3.0474053694   -0.2833511112    1.1308517437
C       -3.8293688758   -0.5908561238    0.0122895595
C       -3.1952205756   -0.9197941047   -1.1918077011
N       -1.8586934348   -0.9532734147   -1.3286447431
C       -1.0966802335   -0.6585450612   -0.2717219886
C       -1.6538379808   -0.3210909392    0.9762656656
N        0.2732019146   -0.7250376919   -0.5190583534
C        1.3515055356   -0.4146164669    0.2608597763
O        1.2882440418   -0.0241110768    1.4084942716
C        2.6679321952   -0.6365049162   -0.4431028189
C        2.9331962451    0.0358440260   -1.7782112312
C        3.6816195129    0.4873058525   -0.5434330082
C        3.4314684299    1.8687400683    0.0508366853
H        3.0647575828   -1.6393328478   -0.3189054225
H        4.7266214121    0.1945139931   -0.4652755596
H       -4.9125368337   -0.5786264342    0.0677130992
H       -3.7775225138   -1.1652040554   -2.0784383853
H       -1.0223567185   -0.0918247427    1.8240917867
H        0.4681312834   -1.0372196403   -1.4507227431
H        3.4899543586   -0.5213442583   -2.5280148117
H        2.1771441827    0.7064768079   -2.1817289440
H        2.3924522431    2.1916684173   -0.0871988064
H        3.6410237469    1.8690492753    1.1273130703
H        4.0795197585    2.6171710483   -0.4199575772
C       -3.6909227738    0.0772720043    2.4582630669
H       -4.2502499977    1.0164961765    2.3770930786
H       -4.3887193602   -0.7048375791    2.7792567139
H       -2.9432475038    0.2012324963    3.2504937856
28   
Iteration 19 Energy -0.17814591
C       -3.0478776401   -0.2842718455    1.1314547762
C       -3.8295474693   -0.5874324228    0.0114845304
C       -3.1945184417   -0.9139976713   -1.1927667903
N       -1.8580686513   -0.9494067775   -1.3296027977
C       -1.0965630679   -0.6584605031   -0.2713002605
C       -1.6543165849   -0.3238890851    0.9771975962
N        0.2735048104   -0.7266189387   -0.5173169731
C        1.3516454133   -0.4133695308    0.2617426859
O        1.2865016217   -0.0196243687    1.4081656795