28   
Iteration 0 Energy -0.17319673
C       -3.1517399200   -0.1734915800    0.8618251600
C       -3.8924907200   -0.8213282600   -0.1323913200
C       -3.2172527800   -1.3803479000   -1.2067589100
N       -1.8932527700   -1.3445591200   -1.3538949400
C       -1.1930364500   -0.7278189200   -0.3998250900
C       -1.7688086900   -0.1258340000    0.7245135000
N        0.1803878400   -0.7499843200   -0.6394375400
C        1.2063450200   -0.2245116100    0.1068646300
O        1.0376062000    0.4064116000    1.1372536400
C        2.5468709400   -0.5268092200   -0.4996283600
C        3.1017753600    0.3831089400   -1.5764615700
C        3.7682660000    0.3058049500   -0.2353287600
C        3.7721393400    1.4922425500    0.6950285500
H        2.7124107800   -1.5917746200   -0.6571215000
H        4.6881305200   -0.2763144200   -0.2132666400
H       -4.9747494900   -0.8878847700   -0.0683201700
H       -3.7649511800   -1.8902891400   -1.9974537000
H       -1.1345782500    0.3597946700    1.4546703100
H        0.4152866800   -1.2161192300   -1.5062182500
H        3.5713794400   -0.0733024300   -2.4431242400
H        2.5376377600    1.2870862400   -1.7942351600
H        2.8590908000    2.0825943100    0.5976605200
H        3.8410210300    1.1745175400    1.7395172700
H        4.6298201800    2.1365207100    0.4700669100
C       -3.8310095100    0.4672205800    2.0365652200
H       -4.3610587100    1.3761725500    1.7274412900
H       -4.5731988100   -0.2062460700    2.4780409800
H       -3.1120383600    0.7453480800    2.8116135500
28   
Iteration 1 Energy -0.17490079
C       -3.2224147707   -0.1859426736    0.8650938141
C       -3.9120979670   -0.8422054691   -0.1587680374
C       -3.1838735657   -1.3776757500   -1.2120686853
N       -1.8544839622   -1.3091411699   -1.3082563083
C       -1.1917253890   -0.6857571321   -0.3302772599
C       -1.8350541721   -0.1078496271    0.7747356984
N        0.1906755942   -0.6833825063   -0.5350873042
C        1.2510527820   -0.1769769997    0.1771793239
O        1.1697736592    0.4580635561    1.2136030235
C        2.5542631088   -0.5143495663   -0.4925096244
C        3.0809406742    0.3819941356   -1.5949107873
C        3.8112537751    0.2862081521   -0.2869613526
C        3.8945630061    1.4733251385    0.6423986652
H        2.6836146637   -1.5827013340   -0.6572332608
H        4.7157856598   -0.3192697946   -0.3078427360
H       -4.9938950368   -0.9340039736   -0.1351389529
H       -3.6895306752   -1.8940952698   -2.0262385992
H       -1.2503982721    0.3885085922    1.5362464678
H        0.4215951764   -1.1456892127   -1.4028877764
H        3.4963529701   -0.0869115601   -2.4825633367
H        2.5312318628    1.3008569271   -1.7862261944
H        2.9948462452    2.0906065572    0.5901850729
H        4.0061957203    1.1522753290    1.6826113295
H        4.7576723800    2.0941113866    0.3758725547
C       -3.9576182111    0.4315157008    2.0211950034
H       -4.4965136330    1.3308803190    1.6998595282
H       -4.6994421331   -0.2618609455    2.4318333493
H       -3.2727672174    0.7196743077    2.8237517932
28   
Iteration 2 Energy -0.17626552
C       -3.2377199605   -0.1815809382    0.8686924488
C       -3.9335705237   -0.8360505572   -0.1522811557
C       -3.2383612417   -1.4008970093   -1.2249000329
N       -1.9008622714   -1.3420248896   -1.3224546351
C       -1.1901717950   -0.7250097387   -0.3722206701
C       -1.8453158330   -0.1394475835    0.7290616615
N        0.1894993728   -0.7313808452   -0.5862683366
C        1.2243324459   -0.2098260260    0.1416260203
O        1.0814648277    0.4050509856    1.1794781359
C        2.5651543925   -0.5142200292   -0.4885118825
C        3.0909978985    0.4000301345   -1.5780874097
C        3.8314858870    0.2990189092   -0.2673492006
C        3.9361984856    1.5038609912    0.6579393237
H        2.7107686150   -1.5770663235   -0.6579435870
H        4.7487521207   -0.2860841788   -0.2690023483
H       -5.0151543268   -0.9111027694   -0.1201920947
H       -3.7648980249   -1.9146170288   -2.0275846691
H       -1.2727861078    0.3603710009    1.4968254385
H        0.4275707777   -1.2001083066   -1.4399678178
H        3.5295354726   -0.0654053575   -2.4576248509
H        2.5365102301    1.3146122789   -1.7790414163
H        3.0532623106    2.1510851317    0.6023059112
H        4.0480801600    1.1833855521    1.7006356197
H        4.8083468142    2.1132803058    0.3941529467
C       -3.9527928462    0.4515072832    2.0447069555
H       -4.4829390565    1.3587509466    1.7325586259
H       -4.6930799387   -0.2359639038    2.4703287931
H       -3.2543058785    0.7300389739    2.8427139859
28   
Iteration 3 Energy -0.17725570
C       -3.1940718660   -0.1748241736    0.8549496080
C       -3.9271614062   -0.8210459371   -0.1467925744
C       -3.2408112573   -1.3994204441   -1.2231185553
N       -1.9012131847   -1.3554372380   -1.3311134328
C       -1.1871088049   -0.7391998463   -0.3838203038
C       -1.7961065683   -0.1313632335    0.7327249763
N        0.1891713235   -0.7580895149   -0.6050464746
C        1.2214014256   -0.2373939414    0.1213516802
O        1.1011375032    0.3798382932    1.1592663504
C        2.5637093453   -0.5412408915   -0.5077276975
C        3.0795077589    0.3974250386   -1.5810221620
C        3.8075270609    0.3016653317   -0.2573891648
C        3.8617811331    1.5042991707    0.6816381813
H        2.7292580642   -1.5995937746   -0.6821147523
H        4.7447911039   -0.2502447384   -0.2421062360
H       -5.0088297673   -0.8797317071   -0.1007286162
H       -3.7782284380   -1.9111357574   -2.0198743787
H       -1.2177890132    0.3671873957    1.4980197789
H        0.4241081677   -1.2329484976   -1.4531675258
H        3.5429926035   -0.0468309327   -2.4590533210
H        2.5076517326    1.3020101407   -1.7791981434
H        2.9608252915    2.1272943859    0.6120806189
H        3.9637818135    1.1755938747    1.7234420188
H        4.7196751679    2.1441336470    0.4442190224
C       -3.9013384114    0.4691598776    2.0363268741
H       -4.4242201303    1.3808189672    1.7252997194
H       -4.6432276804   -0.2130285532    2.4682603323
H       -3.1972110790    0.7423100234    2.8322900365
28   
Iteration 4 Energy -0.17727841
C       -3.1940968723   -0.1649281318    0.8604002517
C       -3.9229791877   -0.8117583462   -0.1443375694
C       -3.2295560494   -1.3924966839   -1.2137380750
N       -1.8920486937   -1.3665649161   -1.3397895056
C       -1.1829354726   -0.7510597135   -0.3899167813
C       -1.7980357603   -0.1409883462    0.7198072887
N        0.1946293645   -0.7700595467   -0.5990882822
C        1.2373302102   -0.2545413160    0.1167516030
O        1.1113562766    0.3619916247    1.1548687005
C        2.5747596419   -0.5531457596   -0.5213373448
C        3.0836824784    0.4003105485   -1.5856504333
C        3.8022327154    0.3049371600   -0.2584372364
C        3.8214411331    1.4996957218    0.6893245321
H        2.7498761866   -1.6093271507   -0.7032433123
H        4.7494584837   -0.2300194161   -0.2439537343
H       -5.0053783835   -0.8680425119   -0.1046444418
H       -3.7719227940   -1.9025451888   -2.0081595928
H       -1.2047365426    0.3529956031    1.4778287008
H        0.4291327775   -1.2520527615   -1.4449686650
H        3.5632618774   -0.0276186736   -2.4627702535
H        2.5025610216    1.2994826567   -1.7805739224
H        2.9086790192    2.1022692544    0.6091146738
H        3.9151318295    1.1667843059    1.7299493617
H        4.6700712245    2.1570571383    0.4671513573
C       -3.8904415710    0.4856756430    2.0434639091
H       -4.4069090595    1.4018157700    1.7345068276
H       -4.6348918609   -0.1900948674    2.4804121472
H       -3.1796701433    0.7524347946    2.8346257125
28   
Iteration 5 Energy -0.17744086
C       -3.1968331994   -0.1676389185    0.8593243273
C       -3.9202751346   -0.8149322227   -0.1483823342
C       -3.2298827861   -1.3952567636   -1.2194064925
N       -1.8913765260   -1.3614907611   -1.3334683038
C       -1.1850938007   -0.7457218432   -0.3812160443
C       -1.8005013048   -0.1368901040    0.7291203564
N        0.1927009711   -0.7647057552   -0.5916951725
C        1.2331670819   -0.2476174924    0.1271611752
O        1.1109366715    0.3682423917    1.1661257940
C        2.5688189378   -0.5474022024   -0.5153554139
C        3.0785853623    0.4014540967   -1.5839847617
C        3.8050196997    0.3030719025   -0.2625549421
C        3.8417521921    1.4998564758    0.6822043682
H        2.7371090768   -1.6047203136   -0.6974269029
H        4.7481983767   -0.2391612185   -0.2545637836
H       -5.0027097409   -0.8720528367   -0.1092304513
H       -3.7684051111   -1.9056606644   -2.0162096446
H       -1.2114041556    0.3576023380    1.4898019637
H        0.4282241061   -1.2460943461   -1.4380296011
H        3.5517323629   -0.0317927213   -2.4619322888
H        2.5025045360    1.3038941136   -1.7787104264
H        2.9346689047    2.1112218802    0.6076582341
H        3.9403551409    1.1688672955    1.7229015365
H        4.6948261141    2.1484804019    0.4515883346
C       -3.9014437353    0.4787170110    2.0392751768
H       -4.4194441210    1.3935415431    1.7289361750
H       -4.6457152889   -0.2002379004    2.4714578371
H       -3.1955127747    0.7466335135    2.8342072096
28   
Iteration 6 Energy -0.17742616
C       -3.2016775330   -0.1721360483    0.8536430546
C       -3.9323834167   -0.8166464310   -0.1502555267
C       -3.2337961638   -1.3938705733   -1.2173794503
N       -1.8949944202   -1.3603197017   -1.3295672300
C       -1.1844186554   -0.7468803997   -0.3789751479
C       -1.8050317342   -0.1397109128    0.7294342168
N        0.1933814251   -0.7680070959   -0.5906746361
C        1.2275012637   -0.2452804481    0.1336630781
O        1.1037260881    0.3700254095    1.1727116056
C        2.5655029197   -0.5405314002   -0.5064279974
C        3.0738646381    0.4047147075   -1.5792032689
C        3.8084728803    0.3033514175   -0.2630213947
C        3.8602515594    1.5028256067    0.6776985517
H        2.7291304901   -1.5981205504   -0.6912170847
H        4.7493054631   -0.2430084874   -0.2627150985
H       -5.0148729034   -0.8732778471   -0.1116562571
H       -3.7685868313   -1.9042911461   -2.0166831955
H       -1.2203857802    0.3546913632    1.4933435908
H        0.4316535622   -1.2514322730   -1.4352198339
H        3.5452120668   -0.0301226573   -2.4573270190
H        2.5012087594    1.3093489748   -1.7738395212
H        2.9600403744    2.1242465839    0.6035770036
H        3.9587086210    1.1745263494    1.7192462744
H        4.7196680757    2.1411893678    0.4420607008
C       -3.9043956934    0.4739318104    2.0346009575
H       -4.4207149904    1.3902616397    1.7259059872
H       -4.6492807559   -0.2043948595    2.4666839011
H       -3.1970875014    0.7391245141    2.8291896816
28   
Iteration 7 Energy -0.17748778
C       -3.1985564884   -0.1688228237    0.8569843477
C       -3.9229286964   -0.8136697728   -0.1512608259
C       -3.2320179584   -1.3940601591   -1.2217271097
N       -1.8928754644   -1.3607345668   -1.3303008220
C       -1.1848072320   -0.7479691628   -0.3774438901
C       -1.8018729098   -0.1393910049    0.7321651108
N        0.1930652256   -0.7707844088   -0.5879704675
C        1.2301023553   -0.2487590286    0.1325554857
O        1.1072066098    0.3677224293    1.1710002602
C        2.5671654281   -0.5439715759   -0.5087790824
C        3.0728674881    0.4034422100   -1.5806912061
C        3.8066518518    0.3034756187   -0.2635919522
C        3.8518116733    1.5024487712    0.6779519997
H        2.7323968214   -1.6009608920   -0.6955535681
H        4.7501464183   -0.2382722077   -0.2637915777
H       -5.0055064263   -0.8686420256   -0.1129941071
H       -3.7689366031   -1.9029425635   -2.0205841709
H       -1.2151075010    0.3531945978    1.4956670355
H        0.4299094765   -1.2564709279   -1.4315727619
H        3.5483701501   -0.0275471560   -2.4584837419
H        2.4979237551    1.3067212302   -1.7748769494
H        2.9504918619    2.1218798697    0.5996592945
H        3.9459963548    1.1737186234    1.7197719612
H        4.7110824003    2.1426634693    0.4468240733
C       -3.9041533386    0.4763990596    2.0368216856
H       -4.4189842960    1.3934526230    1.7277973759
H       -4.6504733279   -0.2020688071    2.4662213441
H       -3.1989658456    0.7401555108    2.8337982120
28   
Iteration 8 Energy -0.17749740
C       -3.1982178681   -0.1689555736    0.8575914872
C       -3.9226041514   -0.8115569728   -0.1521531609
C       -3.2312377970   -1.3909406643   -1.2228700735
N       -1.8920681292   -1.3591185313   -1.3310135049
C       -1.1845678196   -0.7481942247   -0.3766222310
C       -1.8013859551   -0.1407571694    0.7337246119
N        0.1934585999   -0.7720688774   -0.5857845961
C        1.2312956544   -0.2487944308    0.1326539578
O        1.1076181447    0.3701895656    1.1695349388
C        2.5682143742   -0.5455695173   -0.5081024582
C        3.0728615939    0.4008915966   -1.5812074023
C        3.8063537883    0.3037191219   -0.2635868738
C        3.8493894762    1.5039868390    0.6763204855
H        2.7333185609   -1.6025337041   -0.6950836501
H        4.7509506085   -0.2361047375   -0.2637361351
H       -5.0052582165   -0.8656151026   -0.1148111384
H       -3.7682014115   -1.8981391487   -2.0227671377
H       -1.2143325098    0.3497942826    1.4983552948
H        0.4300631981   -1.2592036268   -1.4286022068
H        3.5505652306   -0.0294248518   -2.4581384570
H        2.4972335488    1.3035213896   -1.7764167275
H        2.9495380620    2.1249221715    0.5929070926
H        3.9379332725    1.1765431241    1.7190463530
H        4.7110163456    2.1422015207    0.4484522987
C       -3.9039497757    0.4749997779    2.0380202482
H       -4.4170112272    1.3934841845    1.7303066362
H       -4.6517878227   -0.2031287328    2.4653140133
H       -3.1991860064    0.7360592263    2.8362642887
28   
Iteration 9 Energy -0.17751184
C       -3.1959814151   -0.1695713441    0.8595124871
C       -3.9210966390   -0.8040645187   -0.1549223396
C       -3.2301689433   -1.3804954467   -1.2275704025
N       -1.8908134778   -1.3538350550   -1.3346317866
C       -1.1823304591   -0.7500115264   -0.3765114554
C       -1.7988989141   -0.1468622397    0.7363744944
N        0.1959982377   -0.7785824369   -0.5829581658
C        1.2321068417   -0.2485161178    0.1329880322
O        1.1095300110    0.3804043681    1.1640035633
C        2.5695540719   -0.5498308123   -0.5042986190
C        3.0721177697    0.3922931825   -1.5819099257
C        3.8039651060    0.3051162419   -0.2623738827
C        3.8401578694    1.5100544428    0.6717260402
H        2.7345874238   -1.6069773128   -0.6900378493
H        4.7516441235   -0.2292645791   -0.2607027584
H       -5.0039836585   -0.8543995424   -0.1196435885
H       -3.7682337494   -1.8815739336   -2.0305802367
H       -1.2106714010    0.3364705526    1.5047070782
H        0.4334265596   -1.2702488993   -1.4228030272
H        3.5567668926   -0.0377956192   -2.4551581651
H        2.4944906823    1.2925402501   -1.7822748468
H        2.9450864915    2.1355753926    0.5714280265
H        3.9103660871    1.1872986002    1.7173468110
H        4.7091834991    2.1418681066    0.4543373596
C       -3.9003879577    0.4705104968    2.0428573808
H       -4.4072562992    1.3941236184    1.7402895796
H       -4.6532482985   -0.2059768018    2.4639213647
H       -3.1959087404    0.7219578868    2.8444807751
28   
Iteration 10 Energy -0.17752783
C       -3.1977156452   -0.1730507318    0.8615752336
C       -3.9222550050   -0.7958071768   -0.1605856606
C       -3.2289244678   -1.3655634431   -1.2351759962
N       -1.8892110769   -1.3432140568   -1.3375861491
C       -1.1826341609   -0.7491299951   -0.3720757461
C       -1.8000726189   -0.1539686473    0.7445501910
N        0.1963818915   -0.7821820386   -0.5728869229
C        1.2326831191   -0.2437683345    0.1365544027
O        1.1053702733    0.3987806350    1.1586237902
C        2.5714102313   -0.5510569757   -0.4953267081
C        3.0723089099    0.3810311843   -1.5824327110
C        3.8060245140    0.3062463489   -0.2632778864
C        3.8427451611    1.5190533866    0.6603984725
H        2.7337091809   -1.6094126041   -0.6765523289
H        4.7547293782   -0.2263071700   -0.2603717481
H       -5.0054416500   -0.8424419234   -0.1295763747
H       -3.7657831826   -1.8580942622   -2.0442579043
H       -1.2126668723    0.3192382456    1.5198122743
H        0.4346852294   -1.2802456222   -1.4087344422
H        3.5607421242   -0.0540704140   -2.4510793752
H        2.4946889698    1.2794754279   -1.7907978692
H        2.9569615242    2.1542531266    0.5398858482
H        3.8915278784    1.2048885228    1.7098578266
H        4.7232761600    2.1378403881    0.4520185294
C       -3.9039696659    0.4588374797    2.0481097094
H       -4.4033242753    1.3889070208    1.7529072524
H       -4.6633120576   -0.2171630605    2.4581636318
H       -3.2019322549    0.6971316697    2.8558565757
28   
Iteration 11 Energy -0.17754207
C       -3.1977814874   -0.1763183236    0.8637350517
C       -3.9227356960   -0.7873638317   -0.1651249360
C       -3.2292228775   -1.3507545502   -1.2429974939
N       -1.8891059240   -1.3320159690   -1.3415264940
C       -1.1817856041   -0.7478651940   -0.3704143523
C       -1.7998289474   -0.1609854621    0.7502800169
N        0.1975863663   -0.7855572226   -0.5679766380
C        1.2321513131   -0.2389757035    0.1377295012
O        1.1019905117    0.4164869355    1.1512082552
C        2.5725542095   -0.5524373165   -0.4878923979
C        3.0747017532    0.3693640407   -1.5833453571
C        3.8067025423    0.3078044886   -0.2627359939
C        3.8409149550    1.5281310511    0.6511703018
H        2.7347626174   -1.6123540664   -0.6598014686
H        4.7555876076   -0.2243423167   -0.2531438557
H       -5.0061470368   -0.8301657834   -0.1366627088
H       -3.7658416643   -1.8347649476   -2.0573641990
H       -1.2127915339    0.3024530465    1.5316844102
H        0.4370352435   -1.2886575718   -1.4004479685
H        3.5647991535   -0.0740982055   -2.4468152582
H        2.4968198124    1.2652957061   -1.8015857953
H        2.9611192755    2.1683570781    0.5142452029
H        3.8739809581    1.2224685083    1.7037661300
H        4.7285378535    2.1387878053    0.4489861475
C       -3.9042888436    0.4478097652    2.0542628756
H       -4.3972409453    1.3836804985    1.7667341930
H       -4.6689750263   -0.2277291011    2.4550475555
H       -3.2034970131    0.6739536334    2.8665811628
28   
Iteration 12 Energy -0.17757797
C       -3.1987377317   -0.1840243844    0.8684411844
C       -3.9232097333   -0.7696829894   -0.1753358102
C       -3.2290403490   -1.3179392329   -1.2606511353
N       -1.8882660652   -1.3064447496   -1.3520836394
C       -1.1808761177   -0.7436988396   -0.3682875834
C       -1.8002989398   -0.1760643542    0.7614441251
N        0.1992747702   -0.7898177526   -0.5582581073
C        1.2285843029   -0.2256341572    0.1411862884
O        1.0934585236    0.4561983545    1.1364745244
C        2.5726801069   -0.5525811755   -0.4702615367
C        3.0802104508    0.3440856111   -1.5845181269
C        3.8083766247    0.3107599404   -0.2614107183
C        3.8408643465    1.5477742590    0.6300547623
H        2.7353763832   -1.6163784429   -0.6159105062
H        4.7548787494   -0.2249907900   -0.2338670299
H       -5.0070240395   -0.8051764954   -0.1523764287
H       -3.7651204433   -1.7832027674   -2.0862207788
H       -1.2134279505    0.2659152391    1.5553641808
H        0.4425453578   -1.3026564579   -1.3836844025
H        3.5677057070   -0.1231974709   -2.4368074284
H        2.5032657663    1.2348027033   -1.8253628970
H        2.9712849784    2.1951638340    0.4647715036
H        3.8505699910    1.2619716079    1.6886878630
H        4.7394115633    2.1439899936    0.4331151049
C       -3.9062251592    0.4220636044    2.0677629383
H       -4.3869945825    1.3693251686    1.7973968314
H       -4.6810636516   -0.2532616286    2.4489016913
H       -3.2082013313    0.6229083515    2.8890309604
28   
Iteration 13 Energy -0.17762324
C       -3.1987291901   -0.1938112507    0.8748207065
C       -3.9230415996   -0.7420339294   -0.1891270855
C       -3.2283161838   -1.2688767245   -1.2848132425
N       -1.8867175730   -1.2690399594   -1.3663910500
C       -1.1787298789   -0.7382073743   -0.3652662242
C       -1.7996858531   -0.1978221439    0.7768096175
N        0.2022261608   -0.7975925854   -0.5446592771
C        1.2255695714   -0.2099454338    0.1439287798
O        1.0823808105    0.5059886441    1.1138313333
C        2.5745442915   -0.5547351864   -0.4472478727
C        3.0892571730    0.3071396275   -1.5858147447
C        3.8096091432    0.3151535164   -0.2585028415
C        3.8347346063    1.5754831026    0.6001496058
H        2.7405627540   -1.6226070544   -0.5542495693
H        4.7539996137   -0.2222381773   -0.2039280506
H       -5.0073007000   -0.7660152759   -0.1734836213
H       -3.7637958465   -1.7064871480   -2.1257510166
H       -1.2129765145    0.2126386148    1.5877064638
H        0.4496058935   -1.3248358038   -1.3596992374
H        3.5747560845   -0.1916099264   -2.4212305263
H        2.5124295264    1.1887864025   -1.8582390662
H        2.9750782017    2.2257072524    0.3981411538
H        3.8182125550    1.3184933359    1.6660767426
H        4.7431017351    2.1580237238    0.4073953241
C       -3.9071572686    0.3864017445    2.0864590408
H       -4.3704302659    1.3491537217    1.8414354495
H       -4.6960485095   -0.2876137551    2.4400880710
H       -3.2131372078    0.5507090012    2.9191568834
28   
Iteration 14 Energy -0.17768857
C       -3.1976879986   -0.2078425030    0.8840176956
C       -3.9204312400   -0.6968135151   -0.2094997080
C       -3.2245222655   -1.1903334483   -1.3201553014
N       -1.8821760762   -1.2109944845   -1.3884481344
C       -1.1752666431   -0.7312699828   -0.3610785202
C       -1.7980801010   -0.2327374171    0.7985116503
N        0.2064749227   -0.8120815554   -0.5223647869
C        1.2204929266   -0.1891265281    0.1482167518
O        1.0648102790    0.5740139032    1.0794787279
C        2.5766935100   -0.5577532131   -0.4115864683
C        3.1013535165    0.2504755819   -1.5847137121
C        3.8096961576    0.3219895563   -0.2531775873
C        3.8228098023    1.6171787753    0.5524555769
H        2.7491595030   -1.6289293887   -0.4585219759
H        4.7514597516   -0.2143850482   -0.1582483350
H       -5.0050443144   -0.7018505096   -0.2049206188
H       -3.7590922891   -1.5836381007   -2.1832674497
H       -1.2106188733    0.1280068984    1.6325345604
H        0.4603009811   -1.3616277006   -1.3204528471
H        3.5846236055   -0.2935682276   -2.3926783576
H        2.5245179392    1.1162915461   -1.9038993250
H        2.9735714673    2.2637840404    0.3008253646
H        3.7771132463    1.4057423771    1.6275157853
H        4.7402198912    2.1850933164    0.3589054095
C       -3.9078353581    0.3321044126    2.1133267856
H       -4.3438630026    1.3167790712    1.9087323762
H       -4.7177415076   -0.3376692580    2.4250086600
H       -3.2209362289    0.4393683278    2.9610794730
28   
Iteration 15 Energy -0.17774991
C       -3.1916694585   -0.2235389208    0.8940791261
C       -3.9126266922   -0.6320513868   -0.2332987944
C       -3.2167478883   -1.0828362561   -1.3625679649
N       -1.8743511265   -1.1353188992   -1.4168311118
C       -1.1690207832   -0.7270490328   -0.3581870828
C       -1.7922957590   -0.2811479009    0.8215605981
N        0.2123399707   -0.8399326236   -0.4941673082
C        1.2138206127   -0.1735158103    0.1517993746
O        1.0389309685    0.6382867086    1.0374794172
C        2.5797749432   -0.5635644954   -0.3678127935
C        3.1160933582    0.1784010289   -1.5786224156
C        3.8049762843    0.3327118487   -0.2436356786
C        3.7950787089    1.6699682612    0.4904160925
H        2.7673136323   -1.6326645823   -0.3337617126
H        4.7453186559   -0.1940791068   -0.0957970707
H       -4.9969659904   -0.6085444694   -0.2407790620
H       -3.7508941581   -1.4150739055   -2.2512302051
H       -1.2015897633    0.0147160910    1.6792337082
H        0.4739895395   -1.4174200152   -1.2694814966
H        3.5988713935   -0.4183347733   -2.3487704803
H        2.5369310486    1.0192319105   -1.9552771498
H        2.9432810375    2.2933672314    0.1929937337
H        3.7388232601    1.5174164574    1.5749130754
H        4.7090098341    2.2361657361    0.2764692313
C       -3.9024533249    0.2655527259    2.1443914401
H       -4.3016220677    1.2753369812    1.9941445077
H       -4.7389605086   -0.3935571064    2.4042445631
H       -3.2253537495    0.2976811357    3.0060910268
28   
Iteration 16 Energy -0.17783268
C       -3.1882328713   -0.2228020696    0.8944138865
C       -3.9094409487   -0.6237253199   -0.2357390819
C       -3.2138919351   -1.0731839684   -1.3656656043
N       -1.8719884750   -1.1331058339   -1.4203762523
C       -1.1680096761   -0.7326726649   -0.3581649453
C       -1.7891764829   -0.2878172125    0.8227061462
N        0.2131525024   -0.8509743501   -0.4885737614
C        1.2136839229   -0.1804934771    0.1545105486
O        1.0354314936    0.6307969153    1.0401362918
C        2.5805180303   -0.5672777116   -0.3641667860
C        3.1127942203    0.1741755482   -1.5766518714
C        3.8008577872    0.3344393500   -0.2414919670
C        3.7852357836    1.6747697359    0.4862582781
H        2.7705633556   -1.6359929637   -0.3319558747
H        4.7457996070   -0.1853322777   -0.0981285587
H       -4.9936454443   -0.5948649076   -0.2449046107
H       -3.7490333893   -1.3989498702   -2.2561214740
H       -1.1955214785    0.0032267663    1.6802153809
H        0.4759931470   -1.4318679457   -1.2609609127
H        3.6051174486   -0.4168368516   -2.3451697908
H        2.5314066667    1.0129455696   -1.9545109283
H        2.9293375311    2.2920799123    0.1878116464
H        3.7320570598    1.5266837159    1.5715081878
H        4.6957125905    2.2448369051    0.2678970847
C       -3.8977870303    0.2650766265    2.1456080811
H       -4.2901107300    1.2781290005    1.9993609313
H       -4.7388656726   -0.3898574015    2.4012048180
H       -3.2219549138    0.2888016340    3.0085467586
28   
Iteration 17 Energy -0.17781390
C       -3.1859512394   -0.2372938384    0.9059091523
C       -3.8949876473   -0.5468809459   -0.2605973073
C       -3.1878207158   -0.9520543900   -1.3997699094
N       -1.8482317235   -1.0539294954   -1.4351029595
C       -1.1588985226   -0.7332201662   -0.3374737806
C       -1.7887605278   -0.3436849856    0.8572030329
N        0.2203836239   -0.8916478619   -0.4320233571
C        1.2138234949   -0.1752518041    0.1711422506
O        1.0161960194    0.6876607475    1.0028587883
C        2.5877687240   -0.5791552667   -0.3125528880
C        3.1151603061    0.0975376495   -1.5635209302
C        3.7930077611    0.3445955732   -0.2356372100
C        3.7546228288    1.7260632208    0.4078108078
H        2.7809131498   -1.6451345004   -0.2374142691
H        4.7519727407   -0.1446263317   -0.0783955350
H       -4.9773173845   -0.4826228995   -0.2902028897
H       -3.7141324489   -1.2087865094   -2.3176430023
H       -1.1986302958   -0.1279490641    1.7399076835
H        0.4879976982   -1.5060665544   -1.1763613836
H        3.6456052055   -0.5102343983   -2.2926151330
H        2.5296125551    0.9090205416   -1.9913981359
H        2.9106353491    2.3232668693    0.0416757228
H        3.6599700439    1.6433857603    1.4971694383
H        4.6744309869    2.2813539139    0.1904484416
C       -3.9055151595    0.1963364907    2.1702597017
H       -4.2478412578    1.2342186788    2.0852907419
H       -4.7816553245   -0.4344393808    2.3604015380
H       -3.2523558554    0.1297458044    3.0482271754
28   
Iteration 18 Energy -0.17790721
C       -3.1755818913   -0.2258456928    0.8979247300
C       -3.8981232955   -0.5693244393   -0.2506956664
C       -3.2036327424   -0.9997305081   -1.3886288590
N       -1.8638426060   -1.0958821983   -1.4366356015
C       -1.1617792479   -0.7484106419   -0.3553807387
C       -1.7785418908   -0.3273489318    0.8353227263
N        0.2174166746   -0.8979309728   -0.4620862124
C        1.2123094871   -0.2032216174    0.1631326548
O        1.0131194039    0.6199744782    1.0337608125
C        2.5859200091   -0.5856404245   -0.3376318502
C        3.1145318724    0.1314164204   -1.5647190737
C        3.7844278847    0.3428112540   -0.2258464854
C        3.7393558457    1.7099910216    0.4475164336
H        2.7882313386   -1.6512908174   -0.2869123760
H        4.7464990623   -0.1437643227   -0.0798474110
H       -4.9809936980   -0.5104867405   -0.2680283246
H       -3.7397471189   -1.2812490678   -2.2934725992
H       -1.1781297793   -0.0803483786    1.7028552368
H        0.4842778997   -1.4959750187   -1.2196914392
H        3.6508602174   -0.4509517351   -2.3101012935
H        2.5268851878    0.9530579119   -1.9697266912
H        2.8554700490    2.2860862150    0.1479951729
H        3.7184260407    1.6037390994    1.5387388433
H        4.6239268504    2.3010563066    0.1832636087
C       -3.8816121851    0.2388378952    2.1589382663
H       -4.2380526389    1.2693500263    2.0468133396
H       -4.7467638502   -0.3963422160    2.3820293892
H       -3.2148541340    0.2076298712    3.0287094717
28   
Iteration 19 Energy -0.17794663
C       -3.1835185460   -0.2287910457    0.8985490378
C       -3.9030698263   -0.5828900148   -0.2485505774
C       -3.2059723922   -1.0118720301   -1.3854271439
N       -1.8653456546   -1.0959245993   -1.4338504026
C       -1.1650351223   -0.7375764100   -0.3546977274
C       -1.7856231110   -0.3178942984    0.8348640606
N        0.2150952263   -0.8775861232   -0.4665925255
C        1.2103449074   -0.1863823333    0.1622813676
O        1.0190186094    0.6427539181    1.0289036982