28
Properties=species:S:1:pos:R:3 Iteration=T 23=T Energy=T -0.17974307=T pbc="F F F"
C       -3.06140620      -0.57919039       0.77779713
C       -3.59632850       0.01735606      -0.36976602
C       -2.73174795       0.41391310      -1.39832257
N       -1.39851782       0.25363243      -1.33667670
C       -0.87316505      -0.29277743      -0.23710285
C       -1.66940900      -0.73989457       0.83123728
N        0.50808899      -0.45446969      -0.25654109
C        1.39780566      -0.44407281       0.78131070
O        1.06150902      -0.40513816       1.94685635
C        2.86322079      -0.49539549       0.38980138
C        3.33992019      -0.48733361      -1.05734980
C        3.52368240       0.74059709      -0.19490286
C        2.75473849       2.02778427      -0.47783236
H        3.47036847      -1.04837340       1.10025828
H        4.53262482       0.94616417       0.15747513
H       -4.66520076       0.17030275      -0.47251687
H       -3.12084771       0.87279369      -2.30575571
H       -1.21154433      -1.20835103       1.69419183
H        0.88683869      -0.40697148      -1.18054525
H        4.22775028      -1.06847861      -1.29599100
H        2.62100729      -0.42624869      -1.87015918
H        1.79316272       1.84219440      -0.96996258
H        2.55632172       2.57146408       0.45373751
H        3.33642310       2.68721159      -1.13272220
C       -3.95961770      -1.03394368       1.91447032
H       -4.51741511      -0.18773158       2.33213341
H       -4.68513276      -1.77763290       1.56501732
H       -3.38313446      -1.48720832       2.72945864
