28
Properties=species:S:1:pos:R:3 Iteration=T 25=T Energy=T -611.64936757=T pbc="F F F"
C       -3.08537070      -0.18566195       0.81860665
C       -3.77471200      -0.33882482      -0.38930458
C       -3.04673687      -0.56625592      -1.54721351
N       -1.71707504      -0.65090645      -1.58566695
C       -1.06749295      -0.50636427      -0.42957255
C       -1.69758348      -0.27101179       0.79713882
N        0.31605968      -0.61364852      -0.57071922
C        1.29684811      -0.54179675       0.38337248
O        1.08723347      -0.35411662       1.57040619
C        2.68210896      -0.76034274      -0.15963748
C        3.16756287      -0.13730610      -1.44041157
C        3.68745947       0.35552914      -0.11673894
C        3.29875767       1.71751309       0.39489022
H        3.05939883      -1.75206525       0.08250065
H        4.69892749       0.04661711       0.13947307
H       -4.85888400      -0.28164951      -0.42501902
H       -3.55402659      -0.68860253      -2.50261510
H       -1.09882400      -0.16275563       1.69244438
H        0.60101748      -0.79390882      -1.52406985
H        3.81711326      -0.72233192      -2.08503120
H        2.49042303       0.52810232      -1.97261540
H        2.30195507       2.00581725       0.04384292
H        3.27465629       1.73142240       1.48912718
H        4.00727165       2.47847933       0.05016368
C       -3.82159378       0.06603201       2.10163587
H       -4.38697735       1.00366714       2.04986421
H       -4.54210387      -0.73478921       2.30262415
H       -3.13541088       0.12936077       2.95012201
