28   
Iteration 0 Energy -0.17331851
C       -3.1964492300   -0.1843920400    0.6124936000
C       -3.8519446100   -1.1380136000   -0.1730619300
C       -3.1062176100   -1.8783585500   -1.0780475700
N       -1.7922661300   -1.7385077300   -1.2503888400
C       -1.1735775200   -0.8264044300   -0.4972913900
C       -1.8251638900   -0.0250281200    0.4460792300
N        0.1947971800   -0.7561101400   -0.7583029700
C        1.1474212000    0.0516173000   -0.1879878000
O        0.8893944200    0.8843620500    0.6700732500
C        2.4987856900   -0.1263744100   -0.7893912300
C        3.2015193400    1.1563891100   -1.2088773100
C        3.7699138800    0.3426766800   -0.1037714100
C        3.8154597700    0.8298840400    1.3212901400
H        2.6083914600   -0.9750615200   -1.4603764900
H        4.6260107800   -0.2689485700   -0.3864342400
H       -4.9223408000   -1.2981501100   -0.0814968500
H       -3.5855750900   -2.6277402300   -1.7055865900
H       -1.2581303500    0.6962776600    1.0196620100
H        0.4785352900   -1.4122416900   -1.4734632500
H        3.6899172600    1.1745464000   -2.1785720200
H        2.6851038500    2.0708580900   -0.9293796400
H        2.9228775400    1.4052848800    1.5691065100
H        3.8784572000   -0.0131594400    2.0180696500
H        4.7014809800    1.4575060400    1.4700782200
C       -3.9475673800    0.6415309900    1.6153531800
H       -4.8199312200    1.1205349200    1.1574292200
H       -4.3159716900    0.0156059700    2.4367677400
H       -3.3129273900    1.4216182300    2.0436223900
28   
Iteration 1 Energy -0.17627367
C       -3.2671035032   -0.1946517082    0.6116093742
C       -3.8755939114   -1.1601533430   -0.1957783719
C       -3.0844379951   -1.8762029277   -1.0830214681
N       -1.7687694330   -1.6997413310   -1.2161573424
C       -1.1859339430   -0.7773685193   -0.4453938623
C       -1.8946478253   -0.0009575986    0.4824129194
N        0.1887326744   -0.6805071700   -0.6776091552
C        1.1700764335    0.1104643000   -0.1304006586
O        0.9718038921    0.9591758604    0.7247216176
C        2.4997943725   -0.1162231396   -0.7717210748
C        3.2314881280    1.1374849048   -1.2290919424
C        3.8127588589    0.3154106759   -0.1354224181
C        3.9321919119    0.8151260170    1.2837625372
H        2.5579025096   -0.9744436270   -1.4367141753
H        4.6366019479   -0.3284039104   -0.4408292439
H       -4.9433896134   -1.3486561515   -0.1354565892
H       -3.5254638711   -2.6346204819   -1.7276118422
H       -1.3720091219    0.7334001279    1.0788816422
H        0.4724133282   -1.3372929207   -1.3903096140
H        3.6870482279    1.1262769380   -2.2149322503
H        2.7576086273    2.0734003904   -0.9443070125
H        3.0743503157    1.4264152026    1.5648328595
H        3.9926649045   -0.0235169706    1.9861898632
H        4.8456123714    1.4112388669    1.3908258270
C       -4.0674544037    0.6076243942    1.5978984002
H       -4.9386566298    1.0667254670    1.1177101621
H       -4.4421955072   -0.0317518954    2.4059300645
H       -3.4653897948    1.4019503154    2.0475773670
28   
Iteration 2 Energy -0.17633521
C       -3.3230795220   -0.2002593618    0.6018290752
C       -3.9128639774   -1.1704245714   -0.2140680150
C       -3.1251525402   -1.9012339779   -1.1058669510
N       -1.8016975873   -1.7143736126   -1.2215508821
C       -1.2013094387   -0.7953496124   -0.4576188191
C       -1.9415808882   -0.0264248678    0.4610750373
N        0.1749356141   -0.6910964173   -0.6711530228
C        1.1233601287    0.1141233238   -0.0975233756
O        0.8269856162    0.9413610588    0.7410346841
C        2.4925729404   -0.0889569444   -0.7164765018
C        3.2222859830    1.1559611573   -1.2060244550
C        3.8558357652    0.3229777126   -0.1376541317
C        4.1080914031    0.8315562871    1.2778381136
H        2.5320808582   -0.9497034041   -1.3780276921
H        4.6565646094   -0.3354024454   -0.4685029407
H       -4.9796790612   -1.3602769728   -0.1615063699
H       -3.5657782687   -2.6601512947   -1.7503102786
H       -1.4406888068    0.7129392727    1.0692741965
H        0.4833041367   -1.3374300224   -1.3736058668
H        3.6578050919    1.1080913923   -2.2009061532
H        2.7812406798    2.1129045118   -0.9330072167
H        3.3280891824    1.4902175096    1.6585055795
H        4.1986110539   -0.0089208471    1.9756488650
H        5.0498883984    1.3917239106    1.3061155504
C       -4.1372276746    0.6094101496    1.5870594343
H       -5.0032246160    1.0683951658    1.0962377721
H       -4.5163536687   -0.0289184502    2.3935907792
H       -3.5430122830    1.4094631738    2.0431891373
28   
Iteration 3 Energy -0.17915302
C       -3.2850955974   -0.2023263179    0.6043257846
C       -3.9015489826   -1.1630215617   -0.2046402994
C       -3.1254836304   -1.8947018040   -1.1114419889
N       -1.8003247761   -1.7115862615   -1.2389031829
C       -1.1906841417   -0.7992896955   -0.4749921293
C       -1.9012667804   -0.0223346741    0.4617138802
N        0.1826790165   -0.6982354476   -0.6970156175
C        1.1237384289    0.1069295988   -0.1161068185
O        0.9044723391    0.9504318903    0.7280733686
C        2.4902359408   -0.1099035337   -0.7447052547
C        3.2134257904    1.1428938649   -1.2221154222
C        3.8261589967    0.3108694384   -0.1298998255
C        4.0232865376    0.8374317324    1.2905491979
H        2.5398907629   -0.9722438856   -1.4032765715
H        4.6538696392   -0.3340284742   -0.4169423209
H       -4.9683753372   -1.3458090647   -0.1378781853
H       -3.5771980498   -2.6482767276   -1.7545197519
H       -1.3990333471    0.7130248269    1.0748585280
H        0.4928292721   -1.3368597089   -1.4023780639
H        3.6680034642    1.1108200745   -2.2095077197
H        2.7662469051    2.0993559051   -0.9561206815
H        3.2230942895    1.5001297868    1.6300757941
H        4.0919408563    0.0064312017    2.0023965823
H        4.9576000077    1.4073240696    1.3544537924
C       -4.0918506019    0.6074696120    1.6030824828
H       -4.9584378090    1.0732535241    1.1193822592
H       -4.4649138271   -0.0332554804    2.4104210531
H       -3.4932564403    1.4057091247    2.0587066789
28   
Iteration 4 Energy -0.17909098
C       -3.2699364056   -0.2018697715    0.6235463674
C       -3.9021201858   -1.1530829577   -0.1855087291
C       -3.1273048502   -1.8724155658   -1.1050758542
N       -1.8026314045   -1.7026476846   -1.2575532807
C       -1.1849612175   -0.7992278266   -0.4917694040
C       -1.8862231635   -0.0322051520    0.4585608568
N        0.1856893415   -0.6928012393   -0.7189225922
C        1.1684476338    0.0832523515   -0.1713306687
O        0.9426901139    0.9183998711    0.6802312728
C        2.5342927408   -0.1372264895   -0.7963331532
C        3.2523524339    1.1272826238   -1.2472868517
C        3.8224792676    0.3031461537   -0.1205959035
C        3.9107723346    0.8491020527    1.3017747222
H        2.6126037689   -1.0000057616   -1.4517910812
H        4.6857467129   -0.3181854053   -0.3490191754
H       -4.9682154606   -1.3371833498   -0.1103156215
H       -3.5895696910   -2.6188997456   -1.7489019088
H       -1.3753445386    0.6957827442    1.0746126373
H        0.4756717809   -1.3303027782   -1.4336065027
H        3.7479829835    1.1153207236   -2.2150734652
H        2.7873518251    2.0785201316   -0.9942905535
H        3.0673273014    1.5006911211    1.5581190783
H        3.9412794592    0.0307320282    2.0306792256
H        4.8241448768    1.4418115406    1.4292585238
C       -4.0576248960    0.6067469057    1.6414730404
H       -4.9265093352    1.0839493691    1.1733333766
H       -4.4215635758   -0.0366093586    2.4508846384
H       -3.4468250617    1.3981277538    2.0924967588
28   
Iteration 5 Energy -0.17991858
C       -3.2776019133   -0.2062669532    0.6181604319
C       -3.8990332945   -1.1573820014   -0.1984372526
C       -3.1268196821   -1.8758019854   -1.1192269831
N       -1.8025826523   -1.6953245349   -1.2587227526
C       -1.1946048185   -0.7911867917   -0.4855937304
C       -1.8947312900   -0.0255406369    0.4665557242
N        0.1771467469   -0.6862036965   -0.7116669741
C        1.1407337433    0.1014283984   -0.1450206967
O        0.9170957238    0.9392796005    0.7044471343
C        2.5076488689   -0.1261252573   -0.7641226761
C        3.2418115840    1.1207346367   -1.2379554347
C        3.8233086309    0.2962550213   -0.1208446130
C        3.9660291250    0.8568897295    1.2914022241
H        2.5645228109   -0.9934067624   -1.4156977699
H        4.6698878619   -0.3400809867   -0.3700448185
H       -4.9651992818   -1.3431990667   -0.1262809434
H       -3.5838037452   -2.6217597426   -1.7673981145
H       -1.3857834823    0.7005057405    1.0858413897
H        0.4765635323   -1.3210019167   -1.4259676622
H        3.7311467370    1.0814572054   -2.2080212769
H        2.8049188453    2.0859666616   -0.9884034281
H        3.1552983077    1.5401687618    1.5635881449
H        3.9900898820    0.0472927926    2.0301568014
H        4.9019392599    1.4201627172    1.3836285407
C       -4.0768834789    0.5936209993    1.6319583651
H       -4.9450810376    1.0675194189    1.1593849508
H       -4.4429839909   -0.0541863303    2.4368689630
H       -3.4730303513    1.3863872650    2.0890083452
28   
Iteration 6 Energy -0.17994304
C       -3.2753953842   -0.2101670302    0.6219584272
C       -3.9058546872   -1.1529619021   -0.1968376822
C       -3.1351026494   -1.8653064246   -1.1237996189
N       -1.8103742431   -1.6908685243   -1.2704338571
C       -1.1872458402   -0.7955298361   -0.4989287381
C       -1.8925656016   -0.0401662383    0.4579464186
N        0.1841557627   -0.6941618282   -0.7301614399
C        1.1377749583    0.0977993706   -0.1526489309
O        0.9157121734    0.9340660443    0.6983843456
C        2.5073969162   -0.1300523971   -0.7662919317
C        3.2486417450    1.1111703540   -1.2417589233
C        3.8178163279    0.2949419393   -0.1117279618
C        3.9453857942    0.8734102630    1.2953552559
H        2.5668315160   -1.0004192505   -1.4133649712
H        4.6702753525   -0.3387775707   -0.3470203963
H       -4.9722309764   -1.3364648362   -0.1221682770
H       -3.5966317397   -2.6057818896   -1.7750363642
H       -1.3797184141    0.6801757682    1.0804251863
H        0.4856510090   -1.3252051373   -1.4467609997
H        3.7505636854    1.0640426334   -2.2050394957
H        2.8175868816    2.0816824608   -1.0025367507
H        3.1416683332    1.5732458828    1.5448271765
H        3.9446560290    0.0739314337    2.0454441029
H        4.8878305176    1.4243812202    1.3950808137
C       -4.0617932711    0.5894509737    1.6463237869
H       -4.9303357242    1.0717387188    1.1829356161
H       -4.4253778615   -0.0601302759    2.4509379315
H       -3.4493180610    1.3761583105    2.1024932385
28   
Iteration 7 Energy -0.18007464
C       -3.2720075933   -0.2112648432    0.6244754086
C       -3.9009403862   -1.1508248270   -0.1991532718
C       -3.1348206219   -1.8619667343   -1.1306486056
N       -1.8102311369   -1.6832840835   -1.2726090211
C       -1.1912680027   -0.7900143727   -0.4954600111
C       -1.8893352874   -0.0351143705    0.4668393908
N        0.1800494420   -0.6885853106   -0.7266799038
C        1.1404482974    0.0986488789   -0.1540100666
O        0.9181103972    0.9348539794    0.6972462472
C        2.5085662740   -0.1335821924   -0.7681193756
C        3.2545823794    1.1027807268   -1.2468568927
C        3.8172543961    0.2900927205   -0.1104514956
C        3.9387063326    0.8797240754    1.2923106502
H        2.5664282525   -1.0060725931   -1.4125019862
H        4.6715099466   -0.3436631720   -0.3390757830
H       -4.9674473886   -1.3335073028   -0.1241743764
H       -3.5963937804   -2.5997096272   -1.7849454325
H       -1.3758693666    0.6823124574    1.0922587517
H        0.4781508526   -1.3196930841   -1.4448175763
H        3.7607380011    1.0518129782   -2.2077086118
H        2.8292588654    2.0767472281   -1.0115727242
H        3.1408373196    1.5917707867    1.5264208845
H        3.9209415919    0.0873698124    2.0497022526
H        4.8865451768    1.4206173844    1.3959916071
C       -4.0627723061    0.5815562770    1.6506240983
H       -4.9313048779    1.0639583975    1.1873576273
H       -4.4263537848   -0.0725649002    2.4515536808
H       -3.4533804844    1.3678038880    2.1116005847
28   
Iteration 8 Energy -0.18014040
C       -3.2716181335   -0.2148479118    0.6263817352
C       -3.9039972002   -1.1479644161   -0.2022785128
C       -3.1353821037   -1.8521141912   -1.1365718440
N       -1.8109143432   -1.6774548755   -1.2806583387
C       -1.1946489866   -0.7888428399   -0.4965577370
C       -1.8888379714   -0.0381668900    0.4712627081
N        0.1769023041   -0.6866131736   -0.7250067829
C        1.1407357365    0.0984927663   -0.1550987548
O        0.9173091851    0.9361873647    0.6948231587
C        2.5087992616   -0.1366433378   -0.7662055045
C        3.2596660991    1.0936276670   -1.2506920549
C        3.8162840481    0.2865062292   -0.1069785138
C        3.9344102999    0.8914190300    1.2890744593
H        2.5664901034   -1.0123210429   -1.4063567895
H        4.6720629740   -0.3475046400   -0.3292510794
H       -4.9707338890   -1.3301765821   -0.1290197847
H       -3.5978463090   -2.5852494947   -1.7953948057
H       -1.3728210929    0.6740476399    1.1008040036
H        0.4741703816   -1.3178202302   -1.4437329984
H        3.7718641065    1.0358696098   -2.2079143682
H        2.8408959645    2.0717581394   -1.0212603764
H        3.1504640215    1.6257345323    1.5015756489
H        3.8876131565    0.1101551593    2.0566628095
H        4.8934722772    1.4110989480    1.3978836247
C       -4.0607319226    0.5725974766    1.6573961769
H       -4.9290299008    1.0586379067    1.1975439553
H       -4.4243615702   -0.0857409082    2.4548482215
H       -3.4502140582    1.3555302812    2.1223179013
28   
Iteration 9 Energy -0.18021204
C       -3.2693558671   -0.2164315878    0.6328491180
C       -3.8998793321   -1.1415414840   -0.2060877005
C       -3.1384680129   -1.8422959240   -1.1487956132
N       -1.8136311012   -1.6689471729   -1.2912719034
C       -1.1951741934   -0.7882691848   -0.4998804780
C       -1.8862758881   -0.0445756216    0.4755728191
N        0.1766718696   -0.6878670208   -0.7273734707
C        1.1417020671    0.0969493168   -0.1590224084
O        0.9194367338    0.9368858323    0.6890040609
C        2.5101643370   -0.1420323941   -0.7673984666
C        3.2670345050    1.0811472171   -1.2581118762
C        3.8133242174    0.2839378074   -0.1016239479
C        3.9209887499    0.9080532579    1.2868386316
H        2.5699822251   -1.0227005729   -1.4004884857
H        4.6722701722   -0.3500086985   -0.3114446220
H       -4.9670380098   -1.3215451753   -0.1336974734
H       -3.6048732059   -2.5681738942   -1.8128574353
H       -1.3664543314    0.6598074419    1.1108301862
H        0.4730419798   -1.3190848070   -1.4463960722
H        3.7885233097    1.0139234083   -2.2097009738
H        2.8530791085    2.0637934307   -1.0394389183
H        3.1554240016    1.6698328231    1.4690629175
H        3.8329055384    0.1416524021    2.0657208639
H        4.8930810532    1.3999571455    1.4084494238
C       -4.0565833385    0.5632546094    1.6711508715
H       -4.9246663740    1.0542468820    1.2161546386
H       -4.4203580308   -0.1013672563    2.4633046537
H       -3.4448698121    1.3416014851    2.1422480731
28   
Iteration 10 Energy -0.18030025
C       -3.2652783823   -0.2224690087    0.6371483898
C       -3.9043963607   -1.1327677888   -0.2112147482
C       -3.1460765702   -1.8251687523   -1.1626779633
N       -1.8202721133   -1.6542530056   -1.3010669474
C       -1.1928909396   -0.7866990781   -0.5018128219
C       -1.8814813291   -0.0533884830    0.4835986300
N        0.1794658031   -0.6929791844   -0.7298274248
C        1.1438898410    0.0949091998   -0.1646638355
O        0.9199045979    0.9395612385    0.6781169641
C        2.5138774083   -0.1489383742   -0.7680256778
C        3.2765096535    1.0658688451   -1.2686470606
C        3.8111530015    0.2841732035   -0.0952277718
C        3.9041938181    0.9311836700    1.2839381340
H        2.5778281043   -1.0375357554   -1.3894858944
H        4.6734343705   -0.3505070276   -0.2883408182
H       -4.9724441599   -1.3075688147   -0.1395873318
H       -3.6148859566   -2.5408810123   -1.8360253091
H       -1.3604951145    0.6400485842    1.1296630601
H        0.4744132640   -1.3262662380   -1.4474003749
H        3.8091027908    0.9851904836   -2.2130466641
H        2.8642872787    2.0528216831   -1.0665578225
H        3.1680216550    1.7303427066    1.4248060231
H        3.7550273298    0.1859510129    2.0740200420
H        4.8934294759    1.3809001995    1.4285368224
C       -4.0474878009    0.5478432197    1.6861937612
H       -4.9147775886    1.0472271014    1.2388462719
H       -4.4121965880   -0.1247429928    2.4711532787
H       -3.4318531546    1.3183466332    2.1651837899
28   
Iteration 11 Energy -0.18040168
C       -3.2600640272   -0.2283828436    0.6450386187
C       -3.9047474055   -1.1173906218   -0.2217506848
C       -3.1491629404   -1.7977747120   -1.1840031212
N       -1.8218984740   -1.6370892163   -1.3188364839
C       -1.1896585963   -0.7882710023   -0.5034299625
C       -1.8745976481   -0.0696330072    0.4952186133
N        0.1842929624   -0.7026299870   -0.7246233943
C        1.1454788549    0.0956681534   -0.1688183533
O        0.9227122457    0.9546096375    0.6600311772
C        2.5169829009   -0.1581535501   -0.7635245287
C        3.2829930034    1.0458554064   -1.2838934539
C        3.8083981395    0.2887561987   -0.0898319132
C        3.8829849512    0.9612595451    1.2777575484
H        2.5856151127   -1.0602654064   -1.3646379976
H        4.6720225019   -0.3500055988   -0.2624666655
H       -4.9742761042   -1.2852434954   -0.1557538444
H       -3.6229027642   -2.4972394983   -1.8708366840
H       -1.3479787401    0.6052142823    1.1562497355
H        0.4811531966   -1.3425874137   -1.4354449240
H        3.8250122912    0.9453252285   -2.2209911995
H        2.8658079671    2.0355547652   -1.1071448029
H        3.1961444515    1.8115792543    1.3613137132
H        3.6418414223    0.2486196853    2.0752062585
H        4.8933567105    1.3442193162    1.4627719753
C       -4.0366768248    0.5280652014    1.7080956232
H       -4.9017773156    1.0397849387    1.2705539968
H       -4.4048830645   -0.1560674536    2.4813572481
H       -3.4161704455    1.2864243654    2.1999905939
28   
Iteration 12 Energy -0.18046128
C       -3.2559704488   -0.2311135894    0.6488125074
C       -3.9044945704   -1.1059214310   -0.2295806984
C       -3.1500827784   -1.7805024679   -1.1970948636
N       -1.8213487015   -1.6277268263   -1.3271591204
C       -1.1860279057   -0.7912073143   -0.5015006217
C       -1.8689284696   -0.0803642231    0.5040974522
N        0.1893746178   -0.7129048041   -0.7156194427
C        1.1474836890    0.0970089779   -0.1718356768
O        0.9207240143    0.9702630171    0.6409066920
C        2.5211176918   -0.1640151080   -0.7593225308
C        3.2825644667    1.0371113406   -1.2941642837
C        3.8096524755    0.2977129738   -0.0900821051
C        3.8719510480    0.9754854526    1.2754930312
H        2.5939154675   -1.0754672669   -1.3456530251
H        4.6729639563   -0.3444180394   -0.2514031526
H       -4.9752534195   -1.2675725918   -0.1683867463
H       -3.6265445567   -2.4694391944   -1.8926317224
H       -1.3390096326    0.5820983693    1.1750114165
H        0.4882622528   -1.3608328208   -1.4182028549
H        3.8233740329    0.9262025928   -2.2308027645
H        2.8528182243    2.0243355422   -1.1344729573
H        3.2097390394    1.8471387164    1.3363468985
H        3.5856884052    0.2760910339    2.0698095400
H        4.8892689023    1.3255702608    1.4858292364
C       -4.0300587456    0.5181436067    1.7190440690
H       -4.8924648488    1.0382256545    1.2860538097
H       -4.4022885067   -0.1721738058    2.4848418635
H       -3.4064233072    1.2684741771    2.2192633040
28   
Iteration 13 Energy -0.18049966
C       -3.2511658979   -0.2335921325    0.6521690870
C       -3.9034303928   -1.0930648123   -0.2384885720
C       -3.1511114551   -1.7622561796   -1.2114487019
N       -1.8208310344   -1.6179807477   -1.3358304974
C       -1.1832044454   -0.7943709810   -0.4992390727
C       -1.8626206835   -0.0910658351    0.5137079009
N        0.1936903120   -0.7243449756   -0.7054967449
C        1.1480158742    0.0985636488   -0.1750264506
O        0.9158345743    0.9885130207    0.6180148283
C        2.5244595108   -0.1707546035   -0.7522958619
C        3.2804864887    1.0272727759   -1.3028705348
C        3.8111396129    0.3062675442   -0.0901260018
C        3.8619434183    0.9889764303    1.2732239118
H        2.6005409473   -1.0910795396   -1.3241746119
H        4.6742029961   -0.3388344477   -0.2406365805
H       -4.9755452940   -1.2474673997   -0.1822552807
H       -3.6305048114   -2.4398928778   -1.9160099430
H       -1.3284867304    0.5579778584    1.1945027127
H        0.4948468112   -1.3808037238   -1.3992295560
H        3.8184873924    0.9050675032   -2.2396970431
H        2.8403190351    2.0124186792   -1.1596518864
H        3.2102542695    1.8693251456    1.3192796910
H        3.5530749973    0.2975631764    2.0660828638
H        4.8806369863    1.3256655737    1.4982339043
C       -4.0230637163    0.5083279389    1.7292072013
H       -4.8817437812    1.0379402874    1.3004033873
H       -4.4001580064   -0.1880461270    2.4870998042
H       -3.3960644648    1.2498771985    2.2381491728
28   
Iteration 14 Energy -0.18053520
C       -3.2460961003   -0.2375890671    0.6571664638
C       -3.9036296766   -1.0751792517   -0.2502845608
C       -3.1548532165   -1.7356114674   -1.2320413904
N       -1.8227252925   -1.6021840317   -1.3498063097
C       -1.1810915435   -0.7971985283   -0.4984929910
C       -1.8558098880   -0.1059471717    0.5255564133
N        0.1974872595   -0.7377147520   -0.6953658135
C        1.1479330496    0.0988799085   -0.1798336842
O        0.9083068664    1.0077285009    0.5893042628
C        2.5282008953   -0.1813992516   -0.7430467927
C        3.2819235610    1.0090630518   -1.3135175542
C        3.8113973104    0.3129424597   -0.0863855165
C        3.8488390608    1.0116243587    1.2692071725
H        2.6080290501   -1.1123762910   -1.2968845299
H        4.6752731468   -0.3347736258   -0.2200526918
H       -4.9773617861   -1.2200739461   -0.1998782322
H       -3.6384893842   -2.3970572963   -1.9489788973
H       -1.3160346156    0.5241607711    1.2198117076
H        0.5007469166   -1.4034049160   -1.3793411290
H        3.8197534458    0.8699740044   -2.2480772198
H        2.8364293697    1.9947072272   -1.1917112145
H        3.2028035560    1.8968522491    1.2956709367
H        3.5250540729    0.3322177419    2.0664900469
H        4.8667150983    1.3446003730    1.5032568177
C       -4.0143718128    0.4928514040    1.7447293437
H       -4.8680208586    1.0360637522    1.3229533667
H       -4.3977706737   -0.2125503102    2.4910160629
H       -3.3826352119    1.2215964951    2.2661330074
28   
Iteration 15 Energy -0.18060086
C       -3.2313437511   -0.2531003082    0.6752607310
C       -3.9050746107   -1.0060153331   -0.2925252283
C       -3.1671066667   -1.6299125074   -1.3061506631
N       -1.8294033254   -1.5364935898   -1.4000719875
C       -1.1748925745   -0.8040878651   -0.4953099110
C       -1.8358598213   -0.1619779622    0.5679243331
N        0.2085904898   -0.7840603661   -0.6578461627
C        1.1466199163    0.0956920609   -0.1950595103
O        0.8839239242    1.0645610348    0.4890169348
C        2.5394368209   -0.2207630516   -0.7064253235
C        3.2910170387    0.9348997992   -1.3479769579
C        3.8098878810    0.3309582633   -0.0699409730
C        3.8054910421    1.1001609015    1.2471619072
H        2.6316901848   -1.1868881959   -1.1941853333
H        4.6773624353   -0.3217045780   -0.1420561472
H       -4.9837555667   -1.1157423555   -0.2631593351
H       -3.6637362171   -2.2284852969   -2.0680413547
H       -1.2784344004    0.3956901703    1.3095113703
H        0.5175899526   -1.4808129654   -1.3075305079
H        3.8346657695    0.7321148777   -2.2673677061
H        2.8366875873    1.9230331035   -1.3029390262
H        3.1705616827    1.9924533082    1.2009858156
H        3.4454863023    0.4683629826    2.0677246332
H        4.8178634606    1.4364241716    1.4996536387
C       -3.9881691896    0.4308451954    1.8005883267
H       -4.8224015775    1.0233009609    1.4072202927
H       -4.3960774408   -0.3074125282    2.5006539791
H       -3.3406164815    1.1091622262    2.3684814047
28   
Iteration 16 Energy -0.18067879
C       -3.2302746931   -0.2519350065    0.6730949747
C       -3.9062035804   -1.0064543556   -0.2920183907
C       -3.1704729455   -1.6331263286   -1.3056641809
N       -1.8327549497   -1.5417856736   -1.4015712805
C       -1.1760521477   -0.8095336981   -0.4983130763
C       -1.8348341864   -0.1633378802    0.5635418154
N        0.2073527186   -0.7902810045   -0.6595998613
C        1.1436901968    0.0886303627   -0.1921535499
O        0.8782136737    1.0512292525    0.4995813214
C        2.5370138769   -0.2212581190   -0.7061881356
C        3.2864029211    0.9382784569   -1.3427925450
C        3.8073429606    0.3291421932   -0.0678162659
C        3.8087706472    1.0990705119    1.2491099261
H        2.6305988205   -1.1837804193   -1.2007549368
H        4.6773315383   -0.3195257737   -0.1453700425
H       -4.9849952640   -1.1145613139   -0.2611228709
H       -3.6690173282   -2.2322674227   -2.0658569413
H       -1.2749131754    0.3983834579    1.3002972226
H        0.5174297251   -1.4842196038   -1.3116842376
H        3.8302593030    0.7411538497   -2.2633034649
H        2.8354261975    1.9275865962   -1.2901450611
H        3.1469840044    1.9721496675    1.2189774249
H        3.4884877797    0.4566961258    2.0778553902
H        4.8158912055    1.4668254899    1.4775692937
C       -3.9847125644    0.4367259930    1.7970830565
H       -4.8180874424    1.0297387220    1.4027240580
H       -4.3935271837   -0.2987168169    2.4995768446
H       -3.3353472158    1.1153748094    2.3625405846
28   
Iteration 17 Energy -0.18079274
C       -3.2215848234   -0.2616601706    0.6822287415
C       -3.9095096345   -0.9553489787   -0.3196913794
C       -3.1826196407   -1.5574301676   -1.3547179672
N       -1.8422083494   -1.4980602305   -1.4375205851
C       -1.1745616041   -0.8202310142   -0.5005730935
C       -1.8237308413   -0.2061354309    0.5850680672
N        0.2107900503   -0.8301480475   -0.6374529892
C        1.1382237734    0.0701092564   -0.1945659752
O        0.8571645880    1.0548472458    0.4590870067
C        2.5389251474   -0.2497607462   -0.6807447811
C        3.2906744273    0.8860681576   -1.3551893793
C        3.7984857866    0.3325842762   -0.0494031843
C        3.7860075321    1.1657587928    1.2285574444
H        2.6434043628   -1.2288745472   -1.1392009463
H        4.6759556206   -0.3091519765   -0.0925841718
H       -4.9909836425   -1.0357596033   -0.3008921802
H       -3.6908477114   -2.1103551103   -2.1430001705
H       -1.2505398891    0.3075308665    1.3470808010
H        0.5248309420   -1.5389169298   -1.2712383772
H        3.8486717852    0.6546255248   -2.2591114324
H        2.8450507243    1.8791433593   -1.3434735801
H        3.0938154155    2.0131502871    1.1655695154
H        3.5003663069    0.5531718907    2.0917438526
H        4.7814660269    1.5809294839    1.4245876117
C       -3.9655963909    0.3976109439    1.8302000910
H       -4.7838298908    1.0245312106    1.4571306361
H       -4.3939812964   -0.3562525594    2.5007699688
H       -3.3038357732    1.0382264807    2.4249334084
28   
Iteration 18 Energy -0.18083193
C       -3.2209053555   -0.2654804770    0.6850232933
C       -3.9129853320   -0.9384456653   -0.3283509176
C       -3.1887965140   -1.5309002449   -1.3709040920
N       -1.8479898830   -1.4813996324   -1.4509302361
C       -1.1758442501   -0.8223629202   -0.5036027428
C       -1.8226248969   -0.2204348774    0.5901049095
N        0.2097984713   -0.8403761846   -0.6348174973
C        1.1358979189    0.0619438662   -0.1935309152
O        0.8533075086    1.0484904571    0.4568708572
C        2.5377493475   -0.2590909064   -0.6740413575
C        3.2969197335    0.8662354234   -1.3572904163
C        3.7920998996    0.3287601630   -0.0390992186
C        3.7814297696    1.1933589190    1.2178626978
H        2.6464163546   -1.2439246115   -1.1190509550
H        4.6723245326   -0.3098822399   -0.0705890353
H       -4.9950971738   -1.0104037547   -0.3125915071
H       -3.7000937303   -2.0680493670   -2.1680605502
H       -1.2455371873    0.2761443136    1.3607110661
H        0.5250852189   -1.5537959827   -1.2625848673
H        3.8686735748    0.6251997657   -2.2500513155
H        2.8543945757    1.8607442288   -1.3595096577
H        3.0847915185    2.0358326507    1.1365959959
H        3.5000858148    0.6006668340    2.0962049595
H        4.7761499508    1.6160026835    1.4012559862
C       -3.9605952830    0.3820031505    1.8421168450
H       -4.7755194638    1.0185371302    1.4781823267
H       -4.3942952751   -0.3787350791    2.5014117915
H       -3.2948368350    1.0095646940    2.4462614133
28   
Iteration 19 Energy -0.18083938
C       -3.2208857797   -0.2671862761    0.6865327792
C       -3.9135653781   -0.9315025022   -0.3321581683
C       -3.1894986577   -1.5187933829   -1.3777975652
N       -1.8484844547   -1.4724094279   -1.4560375614
C       -1.1758093299   -0.8213236420   -0.5035516329
C       -1.8223368381   -0.2253885506    0.5935817235
N        0.2100249073   -0.8427528071   -0.6321128638
C        1.1355110229    0.0617891993   -0.1942559146
O        0.8522128067    1.0520194539    0.4501980433