28
Properties=species:S:1:pos:R:3 Iteration=T 44=T Energy=T -0.17976617=T pbc="F F F"
C       -2.96341948      -0.52828528       1.15076880
C       -3.58229267       0.48798401       0.41291844
C       -2.78525611       1.41700146      -0.26877384
N       -1.44164011       1.38003419      -0.25336097
C       -0.83937391       0.40396492       0.43094062
C       -1.56203708      -0.55546869       1.16037359
N        0.55069465       0.44316028       0.42814172
C        1.44582505      -0.58216992       0.52692665
O        1.14064617      -1.73696703       0.74412770
C        2.87725373      -0.16634168       0.29774447
C        3.66020249      -0.80208774      -0.82977137
C        3.29217100       0.66749371      -0.90334598
C        2.33493262       1.14453587      -1.99254002
H        3.42363869       0.00977693       1.21907664
H        4.09827839       1.37883837      -0.73477962
H       -4.66300021       0.56750477       0.36709789
H       -3.23885256       2.22208961      -0.84452354
H       -1.04120558      -1.31524414       1.73090237
H        0.91515668       1.33384662       0.15118186
H        4.70005322      -1.05872777      -0.64250212
H        3.13215340      -1.50067957      -1.47598881
H        1.56270604       0.39787210      -2.21592998
H        1.83354195       2.07382561      -1.69687101
H        2.88006247       1.34213791      -2.92314189
C       -3.77510218      -1.55554278       1.91948046
H       -3.91251337      -1.24234569       2.96086548
H       -4.76735439      -1.69457694       1.47469842
H       -3.27527242      -2.53144851       1.92385870
