28
Properties=species:S:1:pos:R:3 Iteration=T 24=T Energy=T -0.18328603=T pbc="F F F"
C       -3.18194196      -0.14304064       0.76083695
C       -3.90546242      -0.98072568      -0.09554063
C       -3.22050458      -1.70424808      -1.08029650
N       -1.88922795      -1.63021325      -1.24988091
C       -1.18900591      -0.81599515      -0.45597154
C       -1.79396676      -0.07296364       0.57310369
N        0.18651319      -0.81542147      -0.66969815
C        1.10342141       0.16745105      -0.42583098
O        0.82821527       1.23340596       0.08938544
C        2.48863936      -0.18410507      -0.92988378
C        3.37754382       0.95571315      -1.40050317
C        3.74325195       0.18956704      -0.15412168
C        3.71310088       0.85449669       1.21846075
H        2.54272202      -1.10702977      -1.49997269
H        4.57072039      -0.51197237      -0.23696503
H       -4.98160634      -1.07898588      -0.00247126
H       -3.75630100      -2.37021837      -1.75469821
H       -1.19300065       0.55195918       1.22234082
H        0.49270989      -1.61233918      -1.19273415
H        3.98241891       0.79545784      -2.28951623
H        3.01136673       1.97399816      -1.28273610
H        3.04462627       1.72262004       1.24571973
H        3.38131349       0.14628199       1.98671333
H        4.71325610       1.20742813       1.49585121
C       -3.87935569       0.65263608       1.84995854
H       -4.62748951       1.32858136       1.41976991
H       -4.39119298      -0.01432247       2.55334238
H       -3.17075804       1.26218602       2.42293680
