28   
Iteration 0 Energy -0.17289598
C       -3.1827931000    0.2537745300    0.7091707700
C       -3.9797150300   -0.2854187600   -0.3060596300
C       -3.3588440100   -0.9225520100   -1.3698201900
N       -2.0384766100   -1.0571832900   -1.4891876100
C       -1.2844461800   -0.5395323200   -0.5171145400
C       -1.8025087500    0.1263579700    0.5990852300
N        0.0794435300   -0.7312455200   -0.7346939700
C        1.1484191000   -0.3506246000    0.0399456400
O        1.0325903100    0.2816811800    1.0773646400
C        2.4544905200   -0.7564205800   -0.5719381400
C        3.2031205000    0.2892339800   -1.3827123200
C        3.7880120700   -0.2304394800   -0.1098511500
C        3.9723212500    0.6589779000    1.0937521800
H        2.4542730400   -1.7596090200   -0.9946107400
H        4.5881914800   -0.9574289900   -0.2423687900
H       -5.0623971400   -0.2076775600   -0.2676436300
H       -3.9501873500   -1.3508217900   -2.1773737000
H       -1.1281334800    0.5264291800    1.3449227300
H        0.2651304500   -1.2185128500   -1.6015250500
H        3.6238392300   -0.0086704500   -2.3387435200
H        2.7952357900    1.2968394600   -1.3606308800
H        3.1833713100    1.4082580800    1.1665141500
H        3.9528436500    0.0758894700    2.0198889100
H        4.9408951900    1.1677722300    1.0283089000
C       -3.7978894600    0.9415222200    1.8924043800
H       -4.5397948500    1.6834801000    1.5778428800
H       -4.3156157900    0.2188216900    2.5344936600
H       -3.0413771500    1.4473012000    2.4981866600
28   
Iteration 1 Energy -0.17499761
C       -3.2505068041    0.2525780848    0.7089751320
C       -4.0018083710   -0.3006405766   -0.3321996845
C       -3.3311430520   -0.9243656766   -1.3749296719
N       -2.0031269033   -1.0315062789   -1.4472473213
C       -1.2831119923   -0.5030140220   -0.4539485276
C       -1.8635864803    0.1508271090    0.6428219675
N        0.0911555881   -0.6750040542   -0.6384135959
C        1.1878997774   -0.3136414019    0.1075606855
O        1.1460799209    0.3141800275    1.1512537561
C        2.4600866057   -0.7458154399   -0.5602103376
C        3.1980246687    0.2864931078   -1.3977266899
C        3.8264909464   -0.2529159825   -0.1527827189
C        4.0861933367    0.6271860577    1.0462737746
H        2.4185647897   -1.7463226316   -0.9863021213
H        4.6035042735   -0.9971650136   -0.3211264590
H       -5.0863060879   -0.2447149506   -0.3310099983
H       -3.8850991686   -1.3636830598   -2.2028221980
H       -1.2325507863    0.5662089083    1.4158730079
H        0.2751684037   -1.1593584123   -1.5054587851
H        3.5707649304   -0.0176151339   -2.3717182016
H        2.8150659619    1.3033821637   -1.3554333478
H        3.3207252434    1.3966437636    1.1578883264
H        4.0934652717    0.0396034829    1.9700410821
H        5.0630505394    1.1129278836    0.9407274122
C       -3.9187730486    0.9277816467    1.8727808112
H       -4.6638679739    1.6557530055    1.5336370513
H       -4.4433562226    0.1944259162    2.4968612694
H       -3.1930048426    1.4479734598    2.5042422476
28   
Iteration 2 Energy -0.17417421
C       -3.3069943742    0.2446023167    0.7106195898
C       -4.0402344436   -0.3150644590   -0.3400033081
C       -3.3848462576   -0.9408366148   -1.4043219678
N       -2.0466238375   -1.0318248707   -1.4638706934
C       -1.2978244300   -0.5158043805   -0.4829430404
C       -1.9153679568    0.1245624920    0.6099771729
N        0.0781699003   -0.6756058788   -0.6588332291
C        1.1432398277   -0.2965574424    0.1129147819
O        1.0237894113    0.3053709615    1.1605927473
C        2.4616097583   -0.7124418535   -0.5081917674
C        3.1985374809    0.3086279010   -1.3601851375
C        3.8735336512   -0.2629947572   -0.1425162094
C        4.2557912835    0.6299777073    1.0323694433
H        2.4018726493   -1.7094462600   -0.9348422108
H        4.6346630151   -1.0206367044   -0.3164543386
H       -5.1238318593   -0.2684261547   -0.3381446669
H       -3.9434167115   -1.3801530392   -2.2292209676
H       -1.3128397865    0.5411949211    1.4040228357
H        0.2851557734   -1.1532222616   -1.5152259732
H        3.5501630398   -0.0207594941   -2.3349553073
H        2.8310609526    1.3331270018   -1.3449822522
H        3.5711269454    1.4732069965    1.1711515864
H        4.2744946109    0.0551898308    1.9659388492
H        5.2561606062    1.0501661731    0.8764220930
C       -3.9816366760    0.9277030547    1.8832103345
H       -4.7222660698    1.6584450202    1.5377990205
H       -4.5038237172    0.1956115971    2.5100489299
H       -3.2596641035    1.4561903702    2.5172305694
28   
Iteration 3 Energy -0.17667726
C       -3.2661258325    0.2434040513    0.7046866479
C       -4.0298711447   -0.3053885088   -0.3311568810
C       -3.3810095232   -0.9351683218   -1.3995138906
N       -2.0434111951   -1.0368670010   -1.4726877878
C       -1.2930138455   -0.5227758362   -0.4930259870
C       -1.8715182422    0.1264290606    0.6155106661
N        0.0791442599   -0.6909495993   -0.6785478680
C        1.1442619619   -0.3144530213    0.0915199835
O        1.0652525721    0.2874864510    1.1424883637
C        2.4579259252   -0.7351440603   -0.5328645849
C        3.1879787896    0.3007520955   -1.3698667942
C        3.8490788936   -0.2604275066   -0.1351158238
C        4.1744364402    0.6406706390    1.0511629472
H        2.4145852191   -1.7322092769   -0.9612129724
H        4.6330338278   -0.9989034656   -0.2885593573
H       -5.1127494696   -0.2487544446   -0.3157727652
H       -3.9482450163   -1.3709932010   -2.2203413416
H       -1.2596006876    0.5390812111    1.4053199553
H        0.2814712559   -1.1694481604   -1.5344396887
H        3.5610471227   -0.0117767536   -2.3423915276
H        2.8048411979    1.3192548122   -1.3447875072
H        3.4599360847    1.4639804843    1.1657090384
H        4.1799159022    0.0652440149    1.9846536570
H        5.1669917600    1.0894344000    0.9280384803
C       -3.9308631917    0.9315456116    1.8826958489
H       -4.6685960006    1.6670173107    1.5410198806
H       -4.4530199970    0.2026377564    2.5131795563
H       -3.2018784025    1.4565234169    2.5119067095
28   
Iteration 4 Energy -0.17733455
C       -3.2378457888    0.2524757393    0.7165294192
C       -4.0157926937   -0.2898645061   -0.3126824103
C       -3.3783246822   -0.9242451463   -1.3862833558
N       -2.0438868037   -1.0455485152   -1.4874912403
C       -1.2827647628   -0.5374056979   -0.5145020485
C       -1.8464888650    0.1154755194    0.5981999835
N        0.0866120797   -0.7121687853   -0.7052566947
C        1.1694016158   -0.3492456112    0.0448672952
O        1.0917392831    0.2536813536    1.0954247588
C        2.4801466490   -0.7712080954   -0.5783439755
C        3.2062312694    0.2871110737   -1.3882222357
C        3.8335194902   -0.2542222512   -0.1245925933
C        4.0557614043    0.6568472216    1.0766202646
H        2.4669813458   -1.7686241994   -1.0083073748
H        4.6518955291   -0.9613928200   -0.2420418641
H       -5.0981687474   -0.2251186281   -0.2884538320
H       -3.9611949682   -1.3535734418   -2.1995252526
H       -1.2158629822    0.5202963465    1.3783902909
H        0.2762422722   -1.1928574728   -1.5629522983
H        3.6211693280   -0.0016900018   -2.3509863882
H        2.7982715433    1.2955316689   -1.3552370993
H        3.2943061684    1.4430754239    1.1449223966
H        4.0342626528    0.0809386121    2.0094196764
H        5.0317613533    1.1514993489    1.0098732762
C       -3.8773140613    0.9480591073    1.9056272988
H       -4.6108186530    1.6928965735    1.5755297991
H       -4.3974825993    0.2249780771    2.5444597614
H       -3.1323577514    1.4645012564    2.5226212360
28   
Iteration 5 Energy -0.17758811
C       -3.2384488269    0.2473458418    0.7156713582
C       -4.0121155329   -0.2882163803   -0.3196278129
C       -3.3773813176   -0.9186036962   -1.3971390154
N       -2.0407173157   -1.0336553608   -1.4806895932
C       -1.2847585815   -0.5301405375   -0.5007443377
C       -1.8448914974    0.1186688914    0.6168085080
N        0.0846817749   -0.7073170109   -0.6927700688
C        1.1641247635   -0.3450331225    0.0628606949
O        1.0902649652    0.2531730045    1.1160668267
C        2.4702820233   -0.7678629081   -0.5750596376
C        3.2046577775    0.2810579969   -1.3916363121
C        3.8334255213   -0.2571405437   -0.1289650511
C        4.0710989650    0.6621255567    1.0650316359
H        2.4462806398   -1.7662476596   -1.0018162476
H        4.6490383016   -0.9674694000   -0.2462659943
H       -5.0943945742   -0.2212159139   -0.2968662625
H       -3.9548044701   -1.3436964630   -2.2164705407
H       -1.2209899943    0.5198994395    1.4038497361
H        0.2759638659   -1.1864700918   -1.5509635747
H        3.6225382022   -0.0229666150   -2.3483125929
H        2.8127276091    1.2962550875   -1.3709676062
H        3.3256619596    1.4633554944    1.1286629825
H        4.0414912114    0.0951399706    2.0030618321
H        5.0547180816    1.1404766878    0.9920776701
C       -3.8906356921    0.9361036406    1.9021902174
H       -4.6218512770    1.6816623931    1.5686985595
H       -4.4141989984    0.2091987432    2.5338652577
H       -3.1517690103    1.4517751288    2.5270561013
28   
Iteration 6 Energy -0.17756454
C       -3.2421661198    0.2421035213    0.7132291113
C       -4.0255010246   -0.2820046636   -0.3206210126
C       -3.3773105162   -0.9049661253   -1.3940946231
N       -2.0420267507   -1.0278758783   -1.4861762971
C       -1.2819911813   -0.5328932768   -0.5053100431
C       -1.8491872070    0.1096757834    0.6121115031
N        0.0875354822   -0.7117519830   -0.6963803910
C        1.1583182211   -0.3454368568    0.0699739843
O        1.0874727144    0.2505627032    1.1246167212
C        2.4650064166   -0.7656498688   -0.5711088993
C        3.2074828025    0.2742140020   -1.3927559780
C        3.8314440470   -0.2565795546   -0.1257490005
C        4.0698282011    0.6729283300    1.0609330112
H        2.4373852148   -1.7659512857   -0.9930782433
H        4.6475353178   -0.9672580547   -0.2376288386
H       -5.1077449927   -0.2131049116   -0.3000466547
H       -3.9530459655   -1.3246279402   -2.2173996475
H       -1.2256637134    0.5053069611    1.4022678696
H        0.2839992340   -1.1898006500   -1.5543157686
H        3.6358093173   -0.0427105701   -2.3405153278
H        2.8263167703    1.2936601674   -1.3870273390
H        3.3348886306    1.4844765414    1.1094756426
H        4.0246544644    0.1169050964    2.0048441872
H        5.0597813013    1.1384463743    0.9909356971
C       -3.8862216807    0.9274564556    1.9059073124
H       -4.6147224066    1.6787493004    1.5795123700
H       -4.4100010043    0.1997743782    2.5365255153
H       -3.1418770364    1.4365542021    2.5294817713
28   
Iteration 7 Energy -0.17768402
C       -3.2397378336    0.2440346181    0.7186955504
C       -4.0147785789   -0.2806719610   -0.3211597083
C       -3.3745873441   -0.9034692173   -1.3993158461
N       -2.0391773472   -1.0251710478   -1.4881629276
C       -1.2846405383   -0.5305307865   -0.5030135911
C       -1.8470482377    0.1107287994    0.6172260782
N        0.0850511952   -0.7090112133   -0.6918126778
C        1.1622048569   -0.3467567466    0.0674764901
O        1.0916437975    0.2499963504    1.1219109557
C        2.4673094248   -0.7687240248   -0.5741265658
C        3.2103432570    0.2691806105   -1.3968639793
C        3.8309614499   -0.2577552617   -0.1262506877
C        4.0612935126    0.6752066505    1.0586970309
H        2.4407674676   -1.7699797998   -0.9941651871
H        4.6490383468   -0.9667698213   -0.2343916069
H       -5.0970278144   -0.2113441821   -0.3011203350
H       -3.9520625936   -1.3206561411   -2.2226562787
H       -1.2208029785    0.5034403264    1.4068639008
H        0.2786797818   -1.1871291438   -1.5505384976
H        3.6434197168   -0.0479386787   -2.3424241472
H        2.8297067614    1.2887325283   -1.3925876943
H        3.3254488092    1.4866078886    1.0975583156
H        4.0077877263    0.1226707218    2.0041961838
H        5.0521621585    1.1397002412    0.9950392466
C       -3.8884699779    0.9263755132    1.9103400193
H       -4.6171516840    1.6770298924    1.5829155560
H       -4.4132002207    0.1967970886    2.5379835865
H       -3.1471345763    1.4356089627    2.5372934559
28   
Iteration 8 Energy -0.17770230
C       -3.2382529986    0.2427116552    0.7204491581
C       -4.0154791843   -0.2762787590   -0.3204973859
C       -3.3772963481   -0.8962305181   -1.4015517433
N       -2.0416279766   -1.0182515511   -1.4883226625
C       -1.2836234395   -0.5292343182   -0.5028563084
C       -1.8456842942    0.1082691460    0.6198076392
N        0.0854422874   -0.7103496485   -0.6937533554
C        1.1652295527   -0.3490836423    0.0621616177
O        1.0914054587    0.2486726200    1.1158239895
C        2.4709694898   -0.7728016921   -0.5766711192
C        3.2162439544    0.2614215554   -1.4010409958
C        3.8310229041   -0.2578088006   -0.1237788747
C        4.0516811416    0.6825229024    1.0571347673
H        2.4470031658   -1.7759871443   -0.9922460042
H        4.6520115380   -0.9646313460   -0.2237897362
H       -5.0975504648   -0.2048889572   -0.2992043540
H       -3.9549439233   -1.3096819892   -2.2266580412
H       -1.2204897616    0.4972319497    1.4120383231
H        0.2763789996   -1.1885785764   -1.5529209680
H        3.6579485296   -0.0583302575   -2.3417703382
H        2.8365030104    1.2812764417   -1.4022850119
H        3.3186715913    1.4973617534    1.0806248369
H        3.9833866825    0.1370256939    2.0058119789
H        5.0455144412    1.1418620362    1.0028619679
C       -3.8858199155    0.9215829486    1.9147527096
H       -4.6139279328    1.6740567630    1.5901961801
H       -4.4109650251    0.1903325925    2.5400857373
H       -3.1437529450    1.4280113684    2.5432046152
28   
Iteration 9 Energy -0.17772139
C       -3.2371628849    0.2411926779    0.7235688478
C       -4.0127752304   -0.2706320601   -0.3221363036
C       -3.3760228752   -0.8860540750   -1.4065265811
N       -2.0406513981   -1.0107153406   -1.4929276318
C       -1.2830295681   -0.5284110130   -0.5038800704
C       -1.8450487235    0.1034282826    0.6219608713
N        0.0858691873   -0.7118480984   -0.6937689673
C        1.1648133826   -0.3480283651    0.0621608780
O        1.0935611079    0.2525422406    1.1144950501
C        2.4702267010   -0.7751295894   -0.5745632682
C        3.2182276305    0.2517773591   -1.4047583046
C        3.8290227258   -0.2580787643   -0.1213923882
C        4.0450053468    0.6917915083    1.0525601826
H        2.4463293525   -1.7811478833   -0.9832559481
H        4.6510785907   -0.9646485698   -0.2142346634
H       -5.0947229273   -0.1971066454   -0.3018020069
H       -3.9542769929   -1.2934173975   -2.2342317704
H       -1.2192223198    0.4857280202    1.4169267991
H        0.2772384419   -1.1908371480   -1.5524521759
H        3.6673206975   -0.0741138573   -2.3398930167
H        2.8414565128    1.2726377056   -1.4149164926
H        3.3200618976    1.5143127173    1.0575390977
H        3.9574900115    0.1569487902    2.0057380714
H        5.0446156817    1.1394184869    1.0072085854
C       -3.8845439048    0.9143424161    1.9210878905
H       -4.6117904295    1.6692304582    1.6002227854
H       -4.4107362469    0.1803022725    2.5422587694
H       -3.1423352216    1.4167181024    2.5526183412
28   
Iteration 10 Energy -0.17773696
C       -3.2391106272    0.2373323659    0.7263589360
C       -4.0128664075   -0.2613807814   -0.3272456197
C       -3.3714776465   -0.8676987620   -1.4137187758
N       -2.0368448424   -0.9971823590   -1.4988950006
C       -1.2839872325   -0.5252597156   -0.5014509895
C       -1.8470809858    0.0965007638    0.6291685052
N        0.0851694046   -0.7116653975   -0.6859960711
C        1.1653175206   -0.3427054105    0.0657999482
O        1.0935985552    0.2665313629    1.1133890443
C        2.4696985340   -0.7771856131   -0.5670063602
C        3.2200159374    0.2368154615   -1.4100186637
C        3.8293123894   -0.2588362281   -0.1200131245
C        4.0457544639    0.7049720704    1.0419129293
H        2.4439083658   -1.7881246676   -0.9633560618
H        4.6502870163   -0.9676632820   -0.2052385038
H       -5.0947108563   -0.1849778518   -0.3110522754
H       -3.9477961458   -1.2652717528   -2.2475082714
H       -1.2220106674    0.4675249586    1.4301418871
H        0.2771032870   -1.1938771150   -1.5429568536
H        3.6748075015   -0.0998903457   -2.3385380374
H        2.8469859365    1.2587582730   -1.4341438561
H        3.3375377172    1.5417808453    1.0201060454
H        3.9287839839    0.1879643379    2.0017472702
H        5.0557584005    1.1296865422    1.0079747220
C       -3.8886943253    0.8998260029    1.9281883334
H       -4.6147167927    1.6581097114    1.6126539722
H       -4.4171370644    0.1605336248    2.5411807969
H       -3.1476068866    1.3955851891    2.5661225808
28   
Iteration 11 Energy -0.17775789
C       -3.2382067852    0.2354697739    0.7276227209
C       -4.0117774648   -0.2544417767   -0.3302083943
C       -3.3707553553   -0.8568224834   -1.4192754935
N       -2.0361787074   -0.9897807416   -1.5019790530
C       -1.2821685817   -0.5258978367   -0.5015032610
C       -1.8464465880    0.0902976209    0.6317455064
N        0.0866138902   -0.7168374261   -0.6844402750
C        1.1651469691   -0.3403147826    0.0658226023
O        1.0945740425    0.2788977829    1.1075881237
C        2.4699430675   -0.7800462605   -0.5625088127
C        3.2187810621    0.2293272335   -1.4123362031
C        3.8288766513   -0.2571136559   -0.1189207161
C        4.0435771125    0.7130774256    1.0380847210
H        2.4453524676   -1.7940720384   -0.9508549574
H        4.6500949884   -0.9662256058   -0.1991076543
H       -5.0933734167   -0.1745910834   -0.3153069927
H       -3.9467687153   -1.2479671845   -2.2563123063
H       -1.2222344312    0.4537141098    1.4368327303
H        0.2791186515   -1.2033827049   -1.5386726192
H        3.6738693707   -0.1122787472   -2.3389254466
H        2.8426773202    1.2500044817   -1.4433817488
H        3.3430629563    1.5560296724    1.0038737504
H        3.9122764730    0.2039555101    2.0003187314
H        5.0579295031    1.1278342851    1.0113964193
C       -3.8876395525    0.8927116929    1.9325837698
H       -4.6122293565    1.6538139200    1.6205202982
H       -4.4179143033    0.1510744231    2.5411336925
H       -3.1462027502    1.3837665773    2.5738173503
28   
Iteration 12 Energy -0.17779395
C       -3.2374918155    0.2300225621    0.7309925863
C       -4.0086171255   -0.2343365392   -0.3400247629
C       -3.3663093192   -0.8249449693   -1.4350818396
N       -2.0321563748   -0.9684876378   -1.5099305794
C       -1.2790055287   -0.5268847666   -0.4986185121
C       -1.8464092373    0.0732491013    0.6418704105
N        0.0889457917   -0.7303361853   -0.6742210660
C        1.1656805664   -0.3330256772    0.0676766574
O        1.0951682214    0.3168768830    1.0905155086
C        2.4713957423   -0.7876136408   -0.5484515301
C        3.2156189888    0.2082732603   -1.4185362690
C        3.8300155282   -0.2523936529   -0.1177985004
C        4.0421556631    0.7345760717    1.0255405698
H        2.4486716439   -1.8097807113   -0.9147927127
H        4.6512741011   -0.9627237958   -0.1855758584
H       -5.0894808495   -0.1446380530   -0.3305807633
H       -3.9401070762   -1.1973573437   -2.2821270072
H       -1.2251741798    0.4144213270    1.4589046585
H        0.2823360499   -1.2309404682   -1.5198925333
H        3.6668248037   -0.1488534988   -2.3411491128
H        2.8320237338    1.2255514680   -1.4674316455
H        3.3598437808    1.5907290968    0.9618740828
H        3.8798939014    0.2462023675    1.9938401748
H        5.0656278613    1.1270123762    1.0134019641
C       -3.8889280185    0.8718012836    1.9434806347
H       -4.6086284669    1.6410793621    1.6402232327
H       -4.4254266231    0.1234771153    2.5382138891
H       -3.1477432317    1.3492467879    2.5952848503
28   
Iteration 13 Energy -0.17783312
C       -3.2373170111    0.2226779609    0.7354392469
C       -4.0039823464   -0.2070936546   -0.3530529471
C       -3.3588483903   -0.7812863592   -1.4554003803
N       -2.0256512123   -0.9393721260   -1.5203971919
C       -1.2760838566   -0.5274837660   -0.4939580113
C       -1.8473806164    0.0508016178    0.6558132441
N        0.0906618953   -0.7470524689   -0.6582997439
C        1.1661643875   -0.3237757883    0.0707176308
O        1.0938660621    0.3654581007    1.0672883989
C        2.4732696509   -0.7969822649   -0.5289570767
C        3.2126539503    0.1794431176   -1.4257446528
C        3.8321532292   -0.2468686821   -0.1163536983
C        4.0413695796    0.7625952030    1.0078611224
H        2.4519769429   -1.8287646521   -0.8672732931
H        4.6535978391   -0.9583391941   -0.1677265415
H       -5.0837075660   -0.1042766938   -0.3512741023
H       -3.9290317387   -1.1281981608   -2.3156124262
H       -1.2299338559    0.3619756846    1.4876775312
H        0.2849221830   -1.2664602479   -1.4922489134
H        3.6568564776   -0.2007125898   -2.3425040141
H        2.8221724064    1.1927290443   -1.4987163867
H        3.3765200208    1.6293138073    0.9109096642
H        3.8510059165    0.3003531314    1.9838654319
H        5.0722430428    1.1353539228    1.0073093705
C       -3.8924841157    0.8434578018    1.9570477311
H       -4.6048420724    1.6239727551    1.6653605278
H       -4.4379259820    0.0866166571    2.5325424301
H       -3.1522463134    1.3021199147    2.6232936590
28   
Iteration 14 Energy -0.17789020
C       -3.2369297445    0.2119948066    0.7417133931
C       -3.9960245886   -0.1663084623   -0.3709420769
C       -3.3462939842   -0.7157990979   -1.4834018281
N       -2.0151472421   -0.8959847423   -1.5355018190
C       -1.2726578811   -0.5283555373   -0.4874359357
C       -1.8492733437    0.0176635633    0.6750558901
N        0.0917641304   -0.7714423994   -0.6342055883
C        1.1657500299   -0.3123986054    0.0747835943
O        1.0882788363    0.4296070148    1.0322460874
C        2.4755990173   -0.8100000442   -0.4998876689
C        3.2094027134    0.1363467516   -1.4340728828
C        3.8347539139   -0.2395084579   -0.1132585166
C        4.0392769763    0.8034060671    0.9811115487
H        2.4560996621   -1.8538108004   -0.7991083143
H        4.6573175942   -0.9510114119   -0.1402224389
H       -5.0736633265   -0.0438784669   -0.3798208157
H       -3.9107020813   -1.0244642797   -2.3618037464
H       -1.2369374438    0.2849761171    1.5260423157
H        0.2871595854   -1.3172543598   -1.4507821797
H        3.6426855935   -0.2791147511   -2.3406361196
H        2.8123143539    1.1439836040   -1.5421883198
H        3.3894791343    1.6759379022    0.8433404295
H        3.8253965299    0.3767451588    1.9683845095
H        5.0753210883    1.1614989820    0.9867437555
C       -3.8979368620    0.8020461318    1.9755596490
H       -4.5985121408    1.5993268848    1.7011767946
H       -4.4571236372    0.0339566408    2.5222209219
H       -3.1593984286    1.2320437389    2.6624960280
28   
Iteration 15 Energy -0.17795949
C       -3.2345801430    0.1989339617    0.7490402026
C       -3.9832806308   -0.1132945464   -0.3909523113
C       -3.3278869017   -0.6313165498   -1.5153744652
N       -2.0005099438   -0.8412607106   -1.5541623631
C       -1.2688986864   -0.5312123647   -0.4804531083
C       -1.8509632975   -0.0252151679    0.6964776527
N        0.0913223890   -0.8049339483   -0.6036564563
C        1.1631503361   -0.3043813592    0.0794211157
O        1.0753144084    0.4939476018    0.9895411120
C        2.4778121087   -0.8258240681   -0.4636430129
C        3.2058038406    0.0820581392   -1.4409769655
C        3.8358127028   -0.2304709280   -0.1075523498
C        4.0315567993    0.8549239928    0.9466027554
H        2.4618155260   -1.8816822308   -0.7173934818
H        4.6621478020   -0.9380859233   -0.1038174665
H       -5.0574809296    0.0352110736   -0.4117006871
H       -3.8846989058   -0.8902237656   -2.4144536329
H       -1.2435261588    0.1880968309    1.5666128216
H        0.2881425551   -1.3808528064   -1.3989472364
H        3.6271990423   -0.3776247046   -2.3316108010
H        2.8039664417    1.0821554974   -1.5929970179
H        3.3839890400    1.7216197936    0.7682929721
H        3.8113417365    0.4681488465    1.9487606914
H        5.0671970206    1.2142211364    0.9446783174
C       -3.9024128614    0.7514961196    1.9965585332
H       -4.5866154741    1.5701246094    1.7446546076
H       -4.4797728189   -0.0280960155    2.5068196497
H       -3.1659466048    1.1437394586    2.7078377438
28   
Iteration 16 Energy -0.17804262
C       -3.2290317800    0.1965222973    0.7497788292
C       -3.9785853419   -0.0993136549   -0.3941880755
C       -3.3257097309   -0.6115020093   -1.5226780936
N       -2.0002234400   -0.8321178769   -1.5631734112
C       -1.2699132591   -0.5374384565   -0.4845827052
C       -1.8473792832   -0.0378881011    0.6965368347
N        0.0885488450   -0.8199747992   -0.6008836710
C        1.1584252549   -0.3124197634    0.0797057002
O        1.0612090199    0.4881425694    0.9870666214
C        2.4770152235   -0.8308792565   -0.4565755015
C        3.2058560305    0.0707723892   -1.4390849654
C        3.8318605217   -0.2278513212   -0.1011313644
C        4.0198244493    0.8694905736    0.9419530569
H        2.4646601015   -1.8878430680   -0.7060910070
H        4.6627544339   -0.9300424673   -0.0896126967
H       -5.0515333795    0.0581091902   -0.4150224761
H       -3.8837380130   -0.8571641469   -2.4247116490
H       -1.2352059017    0.1650822444    1.5662485626
H        0.2872778818   -1.3992593764   -1.3933889394
H        3.6285602363   -0.3984647648   -2.3240980757
H        2.8071474974    1.0704344482   -1.6014019479
H        3.3467483719    1.7179791805    0.7713440283
H        3.8327295105    0.4840447382    1.9512589404
H        5.0447121567    1.2573757948    0.9137682527
C       -3.8935408413    0.7440969542    2.0009677493
H       -4.5712580759    1.5699251033    1.7551622608
H       -4.4766387303   -0.0352460336    2.5050580782
H       -3.1545733822    1.1256317069    2.7153825472
28   
Iteration 17 Energy -0.17813267
C       -3.2257906718    0.1803197283    0.7616018712
C       -3.9598789626   -0.0295256725   -0.4113969938
C       -3.2989241626   -0.4975518742   -1.5540321285
N       -1.9800685314   -0.7541674456   -1.5853031270
C       -1.2649620089   -0.5342341599   -0.4793744302
C       -1.8508142312   -0.0897756883    0.7183604228
N        0.0867927905   -0.8517115870   -0.5725740738
C        1.1533040216   -0.3087134971    0.0851685414
O        1.0470232813    0.5314873381    0.9556961185
C        2.4755728642   -0.8496146408   -0.4158579597
C        3.2133287656   -0.0118354353   -1.4452229321
C        3.8236264704   -0.2233538368   -0.0825452596
C        3.9938435004    0.9422023243    0.8859826048
H        2.4671480266   -1.9190307192   -0.6055100727
H        4.6608551705   -0.9154680954   -0.0218195429
H       -5.0274940849    0.1593303523   -0.4433085001
H       -3.8464651557   -0.6780004187   -2.4776339885
H       -1.2450652480    0.0421488821    1.6068830169
H        0.2867036240   -1.4524529831   -1.3488276408
H        3.6561830484   -0.5335989294   -2.2901307586
H        2.8264012184    0.9785862004   -1.6769284161
H        3.3161299660    1.7716574263    0.6509291274
H        3.7978919409    0.6240268414    1.9168073282
H        5.0163622039    1.3347848939    0.8415581980
C       -3.8983188942    0.6745016674    2.0296770918
H       -4.5573767283    1.5245555869    1.8181675865
H       -4.5029509517   -0.1187463833    2.4842880108
H       -3.1630589419    1.0043822086    2.7729529630
28   
Iteration 18 Energy -0.17818192
C       -3.2249517263    0.1840923153    0.7594520774
C       -3.9664403989   -0.0443983652   -0.4054434840
C       -3.3111181807   -0.5208423658   -1.5479165493
N       -1.9908333922   -0.7687464263   -1.5862513507
C       -1.2677651499   -0.5337022978   -0.4884303562
C       -1.8486030932   -0.0779070998    0.7078166189
N        0.0859038557   -0.8408293545   -0.5908948771
C        1.1505688651   -0.3131329048    0.0821713719
O        1.0460230755    0.5024050304    0.9761642181
C        2.4721986706   -0.8466939686   -0.4269214858
C        3.2186299760   -0.0007623763   -1.4418693761
C        3.8184684998   -0.2287333614   -0.0754788613
C        3.9932831953    0.9334686500    0.8962213581
H        2.4634641441   -1.9140466022   -0.6276456568
H        4.6539343016   -0.9231923557   -0.0173934316
H       -5.0355229714    0.1367834848   -0.4313299119
H       -3.8644065602   -0.7151041139   -2.4652730971
H       -1.2377928013    0.0689720695    1.5904073583
H        0.2873706852   -1.4289849535   -1.3761603592
H        3.6770031488   -0.5088947726   -2.2868747825
H        2.8369988608    0.9935009105   -1.6656697577
H        3.3022570280    1.7570152926    0.6796579490
H        3.8184564220    0.6068070950    1.9282295304
H        5.0109409390    1.3365856036    0.8369668109
C       -3.8908565996    0.6882668329    2.0270200774
H       -4.5551718069    1.5332027173    1.8114231555
H       -4.4898288157   -0.1026871054    2.4929737557
H       -3.1522118718    1.0277604768    2.7626561396
28   
Iteration 19 Energy -0.17820488
C       -3.2260013007    0.1819947577    0.7598618712
C       -3.9652824703   -0.0347978759   -0.4086744164
C       -3.3085488036   -0.5043646327   -1.5535157128
N       -1.9887046511   -0.7559714203   -1.5891401286
C       -1.2669175478   -0.5320853475   -0.4880179674
C       -1.8502736001   -0.0843796114    0.7101862335
N        0.0857776987   -0.8441278173   -0.5877458340
C        1.1491239486   -0.3108811936    0.0827618999
O        1.0442728956    0.5122730177    0.9696358457