28
Properties=species:S:1:pos:R:3 Iteration=T 22=T Energy=T -0.18502296=T pbc="F F F"
C       -3.16702628      -0.41334130       0.71195967
C       -3.76678742       0.81834468       0.42570501
C       -2.95506151       1.94481254       0.23949673
N       -1.61392226       1.90151394       0.31727104
C       -1.02695251       0.72803882       0.56595480
C       -1.76718472      -0.44619931       0.78890542
N        0.36094351       0.76412822       0.66193473
C        1.27171532      -0.21805903       0.39831748
O        0.97899120      -1.36026231       0.10248480
C        2.69908517       0.26277065       0.51057036
C        3.83339631      -0.71632710       0.26570812
C        3.55289067       0.37786704      -0.73838329
C        3.01439742       0.04835307      -2.12642585
H        2.85912642       1.02682409       1.26564438
H        4.25395551       1.20956660      -0.76298026
H       -4.84498110       0.91047562       0.35207664
H       -3.39451000       2.91741093       0.02421043
H       -1.26100275      -1.37532875       1.02118915
H        0.71337981       1.69168138       0.79743306
H        4.72634417      -0.62410276       0.87884190
H        3.58100149      -1.73849640      -0.01030871
H        2.40341788      -0.86237359      -2.12565623
H        2.39544506       0.86899969      -2.50802658
H        3.83832052      -0.10875842      -2.83237672
C       -4.00599158      -1.65978143       0.93144381
H       -4.72388960      -1.50888975       1.74596512
H       -4.57009284      -1.91323821       0.02635206
H       -3.38500636      -2.52542594       1.19029100
