28
Properties=species:S:1:pos:R:3 Iteration=T 28=T Energy=T -0.17740702=T pbc="F F F"
C       -3.09132043      -0.51133537       0.69314563
C       -3.56114620       0.39462826      -0.26469650
C       -2.63929598       1.06262069      -1.08108082
N       -1.31095911       0.87896884      -0.98785135
C       -0.84793823       0.03445786      -0.06241608
C       -1.70394289      -0.69450267       0.78127894
N        0.53370618      -0.12583720      -0.04825516
C        1.36734625      -0.46654533       0.97886975
O        0.96397505      -0.78460092       2.07845911
C        2.85930816      -0.40786716       0.68483135
C        3.37581135      -0.85424636      -0.67558459
C        3.50922828       0.59395303      -0.26569818
C        2.76877305       1.70682358      -1.00589890
H        3.46394735      -0.69590054       1.53990571
H        4.49895536       0.92734239       0.04089940
H       -4.62312669       0.57986387      -0.38432528
H       -2.97666941       1.76655957      -1.84006190
H       -1.29725036      -1.39798236       1.49764528
H        0.96714953       0.20916065      -0.88443865
H        4.28090292      -1.45699621      -0.69632990
H        2.65674225      -1.10746333      -1.45125196
H        2.03292614       1.32303623      -1.72128075
H        2.25490193       2.37191778      -0.30097134
H        3.47654927       2.31725371      -1.57944701
C       -4.05131187      -1.26883449       1.59320053
H       -4.79701316      -0.59292102       2.02772008
H       -4.58447158      -2.04311112       1.02955168
H       -3.52577445      -1.75824745       2.42168835
