28   
Iteration 0 Energy -0.16931375
C       -3.1154560900   -0.3457575700    0.7594988800
C       -3.5998153100    0.3568074300   -0.3491416800
C       -2.6880609800    0.8876544800   -1.2485929800
N       -1.3662941200    0.7684101400   -1.1260262600
C       -0.9115141400    0.0958640300   -0.0662227200
C       -1.7390598400   -0.4777236200    0.9052173200
N        0.4807218200    0.0285135100   -0.0365046500
C        1.2978910300   -0.5973600700    0.8694821400
O        0.8790324700   -1.1737197800    1.8615246700
C        2.7660153200   -0.5632686200    0.5907095000
C        3.3293436600   -0.9731482700   -0.7568619700
C        3.5546593600    0.4153464800   -0.2620470000
C        2.9961537300    1.6332817300   -0.9631556300
H        3.2944959900   -0.9490639800    1.4563291100
H        4.5400630100    0.5944872300    0.1637536700
H       -4.6667318100    0.4865751200   -0.5062653000
H       -3.0316475400    1.4405573100   -2.1212643300
H       -1.2964774600   -1.0057123000    1.7396354800
H        0.8951660000    0.5146202500   -0.8177772600
H        4.1448157100   -1.6899502900   -0.7722477900
H        2.6088857200   -1.0977086800   -1.5627525300
H        2.2691394400    1.3878947900   -1.7460521400
H        2.5276902000    2.3353633600   -0.2651941400
H        3.8084882900    2.1627980300   -1.4714015800
C       -4.0549579400   -0.9429843400    1.7659691700
H       -4.6860600100   -0.1699454900    2.2193033300
H       -4.7247509500   -1.6694141300    1.2916154100
H       -3.5117337000   -1.4522149900    2.5660677700
28   
Iteration 1 Energy -0.17188022
C       -3.1300586424   -0.3336554203    0.7512979441
C       -3.5622486478    0.3765371576   -0.3729706148
C       -2.6081876774    0.8838393988   -1.2433891049
N       -1.2929408878    0.7330066982   -1.0754896580
C       -0.8774871486    0.0538596273   -0.0024624503
C       -1.7602046413   -0.4954083368    0.9391404426
N        0.5152376331   -0.0374739383    0.0594060842
C        1.3751197563   -0.6474406313    0.9383455767
O        1.0394407378   -1.2395783491    1.9501426567
C        2.8276807810   -0.5684683741    0.5859357157
C        3.3283963816   -0.9592642663   -0.7916794160
C        3.5361386996    0.4374384173   -0.3036374551
C        2.8992077203    1.6383395884   -0.9690444711
H        3.4162404009   -0.9381193140    1.4195378148
H        4.5368086347    0.6499501637    0.0678169011
H       -4.6198946517    0.5307359631   -0.5652661333
H       -2.9093650850    1.4423989185   -2.1280531442
H       -1.3681922843   -1.0325506943    1.7911183879
H        0.9259181979    0.4474186922   -0.7229172571
H        4.1643931108   -1.6497471796   -0.8544442094
H        2.5693170113   -1.1057510235   -1.5573749587
H        2.1387062635    1.3688050770   -1.7111616003
H        2.4467363635    2.3223085447   -0.2427827932
H        3.6637974449    2.1966612588   -1.5193304481
C       -4.1155564343   -0.9075077619    1.7297042533
H       -4.7427340652   -0.1189920587    2.1613493266
H       -4.7861532229   -1.6198922994    1.2355534968
H       -3.6101139020   -1.4272480965    2.5482535935
28   
Iteration 2 Energy -0.17345016
C       -3.1041523338   -0.3148558045    0.7459769475
C       -3.5146514003    0.3856082813   -0.3925631567
C       -2.5714566787    0.8816761868   -1.2965986029
N       -1.2519512331    0.7110062951   -1.1183475745
C       -0.8108147601    0.0470994895   -0.0443017946
C       -1.7210112174   -0.4712672444    0.8971299051
N        0.5775172717   -0.0657100363    0.0301045518
C        1.4000935282   -0.6799237583    0.9346053869
O        0.9880166862   -1.2509383881    1.9243186895
C        2.8751795143   -0.6117709216    0.6102359073
C        3.3126189848   -0.9659919634   -0.7995339258
C        3.5072398081    0.4395930427   -0.2856889242
C        2.7663875663    1.6228693350   -0.8935225168
H        3.5406076922   -0.9680318277    1.3920961304
H        4.5144419758    0.7145971207    0.0221709877
H       -4.5697274372    0.5499343918   -0.5831871674
H       -2.8785028015    1.4288356265   -2.1864192422
H       -1.3560391283   -1.0045989036    1.7632907982
H        1.0237732998    0.3906061609   -0.7414386929
H        4.1752281749   -1.6186295827   -0.9129708141
H        2.5287453187   -1.1380804668   -1.5340215139
H        1.9695763653    1.3089112344   -1.5780794964
H        2.3298949303    2.2607867643   -0.1153406472
H        3.4562292790    2.2397671886   -1.4818521408
C       -4.0988509533   -0.8663522456    1.7468494945
H       -4.7106008781   -0.0618469596    2.1713604506
H       -4.7776367636   -1.5811132693    1.2672280259
H       -3.6001530256   -1.3819780508    2.5760974863
28   
Iteration 3 Energy -0.17439788
C       -3.1406673304   -0.3221695712    0.7588283621
C       -3.5913641594    0.3695830031   -0.3709871126
C       -2.6512064170    0.8539872343   -1.2918070246
N       -1.3268903228    0.6792390058   -1.1309066706
C       -0.8726398267    0.0211531451   -0.0592268791
C       -1.7551910471   -0.4964209674    0.9109706497
N        0.5142331733   -0.0949960064   -0.0016938111
C        1.3674406041   -0.6969146149    0.8771973926
O        0.9387017268   -1.2670335219    1.8578091940
C        2.8661867138   -0.6056538427    0.5930100857
C        3.3547998100   -0.9487235334   -0.8063960305
C        3.5659538268    0.4512187621   -0.2631881570
C        2.9166856212    1.6731641844   -0.9183771300
H        3.4782668653   -0.9819862455    1.4084670713
H        4.5623285371    0.7113109774    0.0897841659
H       -4.6491680546    0.5346134710   -0.5416469651
H       -2.9678509000    1.3962174264   -2.1812976725
H       -1.3961039943   -1.0285957527    1.7808290726
H        0.9485398948    0.3519460053   -0.7793657938
H        4.2214570961   -1.6030200714   -0.8767020119
H        2.6142477773   -1.1223696797   -1.5841635185
H        2.1674688244    1.4063300596   -1.6715445499
H        2.4508886816    2.3190054598   -0.1631207868
H        3.6757959549    2.2698151630   -1.4396556199
C       -4.1282552656   -0.8628686726    1.7819842403
H       -4.7266443657   -0.0508848803    2.2113359403
H       -4.8155039799   -1.5798722546    1.3179396720
H       -3.6215077008   -1.3758726818    2.6095223572
28   
Iteration 4 Energy -0.17453556
C       -3.1014730233   -0.3117061752    0.7482912662
C       -3.5635410812    0.3799846382   -0.3776126202
C       -2.6180824838    0.8574204620   -1.2941852753
N       -1.2927062510    0.6878157820   -1.1519408972
C       -0.8567627617    0.0262594077   -0.0763381747
C       -1.7187933218   -0.4953582698    0.9071139576
N        0.5297179211   -0.0940806759   -0.0212473554
C        1.3344506556   -0.7165652664    0.8898511025
O        0.9830226834   -1.3074806988    1.8891816532
C        2.8272929602   -0.6146611209    0.5998414225
C        3.3304965615   -0.9475537498   -0.7973616845
C        3.5193246269    0.4502218581   -0.2533582451
C        2.8519049114    1.6593431293   -0.9099358136
H        3.4126684160   -0.9993224301    1.4298947750
H        4.5135732367    0.7175459136    0.0999672080
H       -4.6220703354    0.5471306724   -0.5443534391
H       -2.9369260275    1.4004636388   -2.1823567781
H       -1.3419593612   -1.0261491340    1.7712205750
H        0.9812297536    0.3488662741   -0.7936562529
H        4.2045519750   -1.5908163007   -0.8700362701
H        2.5960210984   -1.1026864168   -1.5848114170
H        2.1085205342    1.3793894220   -1.6642768467
H        2.3716953542    2.2983350397   -0.1586064595
H        3.6024803110    2.2680048158   -1.4286027917
C       -4.0852308772   -0.8494691507    1.7738849524
H       -4.6803231544   -0.0368013976    2.2063817235
H       -4.7754772183   -1.5658165990    1.3134265273
H       -3.5736037181   -1.3621120675    2.5972236442
28   
Iteration 5 Energy -0.17567672
C       -3.1182556701   -0.3134351942    0.7549381143
C       -3.5517814403    0.3825931581   -0.3788175050
C       -2.6070329985    0.8632061541   -1.2926210425
N       -1.2832443786    0.6916491583   -1.1427715877
C       -0.8502385561    0.0281904778   -0.0671443575
C       -1.7341970746   -0.4855424941    0.8997034703
N        0.5357397479   -0.0965639910   -0.0004984260
C        1.3660485853   -0.7103822509    0.8944610941
O        0.9702774308   -1.2933350163    1.8824800202
C        2.8547905865   -0.6159638058    0.6003723499
C        3.3491843516   -0.9488433829   -0.7994305654
C        3.5284962294    0.4499425605   -0.2615542628
C        2.8328119937    1.6459495459   -0.9078187265
H        3.4544650800   -0.9977630310    1.4214091101
H        4.5258804818    0.7223489863    0.0786348712
H       -4.6083483381    0.5532532523   -0.5557849021
H       -2.9224296865    1.4078748734   -2.1810192225
H       -1.3556965627   -1.0164658375    1.7631040602
H        0.9797820256    0.3539906807   -0.7749354199
H        4.2261444184   -1.5862691247   -0.8838451823
H        2.6070201309   -1.1000112004   -1.5803899549
H        2.0792407954    1.3497234989   -1.6462462729
H        2.3543998269    2.2799373377   -0.1515040115
H        3.5642055896    2.2642825627   -1.4416787092
C       -4.1050501156   -0.8526504465    1.7744716560
H       -4.7027333300   -0.0412496011    2.2057497441
H       -4.7935013114   -1.5681789710    1.3100976037
H       -3.5959762740   -1.3660861122    2.5982365475
28   
Iteration 6 Energy -0.17567995
C       -3.1092125489   -0.3081602876    0.7478299942
C       -3.5559319674    0.3838114588   -0.3828440163
C       -2.6096558546    0.8608076606   -1.2980855299
N       -1.2874362884    0.6807272174   -1.1357075925
C       -0.8468523057    0.0200037029   -0.0608545790
C       -1.7282041635   -0.4921393349    0.9104222185
N        0.5397765925   -0.1015849073   -0.0012566725
C        1.3705560810   -0.7140241225    0.8938710564
O        0.9667905443   -1.2954549723    1.8789143339
C        2.8613629843   -0.6193731604    0.6021956803
C        3.3460813861   -0.9480222966   -0.8020153067
C        3.5267340929    0.4510723739   -0.2605255287
C        2.8225292046    1.6474237848   -0.8994630562
H        3.4765119787   -1.0000250923    1.4125213350
H        4.5266260425    0.7270419367    0.0692975285
H       -4.6132553120    0.5530522434   -0.5555682763
H       -2.9193514081    1.4042788762   -2.1892340103
H       -1.3620786552   -1.0227959309    1.7788181837
H        0.9824524458    0.3487144747   -0.7759349608
H        4.2284967733   -1.5774611497   -0.8917879703
H        2.6027257978   -1.1123196831   -1.5791490958
H        2.0639921439    1.3500940330   -1.6324409540
H        2.3474652393    2.2767815104   -0.1369110435
H        3.5477973899    2.2707540848   -1.4362514572
C       -4.0997766881   -0.8423297749    1.7676939461
H       -4.6956046935   -0.0279695597    2.1959655667
H       -4.7890010122   -1.5575669513    1.3039969052
H       -3.5935363313   -1.3551342982    2.5941016521
28   
Iteration 7 Energy -0.17576970
C       -3.1132908647   -0.3102434827    0.7509736747
C       -3.5562641495    0.3824948330   -0.3808968954
C       -2.6118398683    0.8606225508   -1.2974620590
N       -1.2886299442    0.6839093743   -1.1410013507
C       -0.8482600462    0.0230496152   -0.0664140351
C       -1.7303815259   -0.4888539343    0.9041135393
N        0.5381836559   -0.0991756978   -0.0056810922
C        1.3656543923   -0.7130229503    0.8915514662
O        0.9663881255   -1.2957513456    1.8776431118
C        2.8572273533   -0.6189419837    0.6022261665
C        3.3465212614   -0.9481594910   -0.8004099481
C        3.5280257441    0.4504356578   -0.2588716918
C        2.8296302368    1.6486053335   -0.9011058760
H        3.4674170453   -1.0010830978    1.4155242694
H        4.5273689153    0.7243161698    0.0743439566
H       -4.6134576404    0.5520762632   -0.5541223030
H       -2.9250556701    1.4039029355   -2.1874922110
H       -1.3599773431   -1.0191486008    1.7710282920
H        0.9825377076    0.3508627930   -0.7794980809
H        4.2284241153   -1.5787966037   -0.8866990210
H        2.6059041670   -1.1112745415   -1.5804175274
H        2.0733965168    1.3537574161   -1.6373799072
H        2.3531690413    2.2795243399   -0.1407197093
H        3.5589955189    2.2697165492   -1.4348875675
C       -4.1011834198   -0.8459350729    1.7726954212
H       -4.6971048546   -0.0324048519    2.2024186189
H       -4.7904933098   -1.5618270155    1.3101313016
H       -3.5929036853   -1.3584533214    2.5980077889
28   
Iteration 8 Energy -0.17578068
C       -3.1129171860   -0.3099069618    0.7522686374
C       -3.5527865105    0.3829624606   -0.3808659600
C       -2.6080228132    0.8595065448   -1.2975910803
N       -1.2847538960    0.6830263948   -1.1436473480
C       -0.8490358488    0.0217983557   -0.0676191002
C       -1.7300251777   -0.4890744433    0.9040845288
N        0.5370149032   -0.1027263117   -0.0047425629
C        1.3655185976   -0.7169318574    0.8913657674
O        0.9686464814   -1.3013897145    1.8775218296
C        2.8561845575   -0.6195749124    0.6012529462
C        3.3486626569   -0.9467072635   -0.8006050195
C        3.5261438462    0.4515948810   -0.2581802067
C        2.8258310427    1.6479721369   -0.9010526638
H        3.4607693953   -1.0048539473    1.4171743702
H        4.5253767198    0.7266071860    0.0744281585
H       -4.6096362438    0.5540094947   -0.5549646531
H       -2.9216705915    1.4025216381   -2.1876270845
H       -1.3572501718   -1.0188492384    1.7704430137
H        0.9818385568    0.3482474417   -0.7780435829
H        4.2323799915   -1.5745754500   -0.8881499425
H        2.6095671439   -1.1052887223   -1.5829949429
H        2.0716731236    1.3512374469   -1.6387285407
H        2.3459464214    2.2771955184   -0.1414799551
H        3.5545047184    2.2714184541   -1.4329639080
C       -4.1015636589   -0.8436529114    1.7739528120
H       -4.6966072066   -0.0291463330    2.2030347521
H       -4.7916561232   -1.5589853405    1.3116982936
H       -3.5941312974   -1.3562326342    2.5996297958
28   
Iteration 9 Energy -0.17578552
C       -3.1146984513   -0.3095060873    0.7523325731
C       -3.5570880021    0.3818958763   -0.3806151327
C       -2.6120721808    0.8569787404   -1.2979590545
N       -1.2884363515    0.6808976088   -1.1453468585
C       -0.8490860532    0.0210033611   -0.0698828282
C       -1.7314273281   -0.4877768153    0.9018309348
N        0.5371185713   -0.1029199724   -0.0084269254
C        1.3639318679   -0.7179238128    0.8886829643
O        0.9661947207   -1.3032598186    1.8738797640
C        2.8552720225   -0.6199837448    0.6011818848
C        3.3495376035   -0.9461839576   -0.8002245983
C        3.5274555838    0.4516440926   -0.2558900928
C        2.8303142794    1.6495497714   -0.8997250200
H        3.4585540779   -1.0078061525    1.4168909224
H        4.5270764961    0.7250876280    0.0768426926
H       -4.6140895784    0.5527283107   -0.5539135744
H       -2.9262106754    1.3990989422   -2.1883693359
H       -1.3588535609   -1.0166473381    1.7687639845
H        0.9822018621    0.3484616526   -0.7812532523
H        4.2342441746   -1.5727290629   -0.8875255326
H        2.6124805627   -1.1044340480   -1.5845979159
H        2.0783703885    1.3547040288   -1.6404093791
H        2.3485118866    2.2782302832   -0.1408891379
H        3.5614403366    2.2731098178   -1.4281649972
C       -4.1012025260   -0.8427420931    1.7764785607
H       -4.6958412074   -0.0280924917    2.2058522462
H       -4.7917295573   -1.5589756312    1.3162697602
H       -3.5919675501   -1.3542071314    2.6017857334
28   
Iteration 10 Energy -0.17578659
C       -3.1139829898   -0.3094896870    0.7531524744
C       -3.5546387422    0.3806969729   -0.3811393178
C       -2.6117668420    0.8555440241   -1.3008657311
N       -1.2884574317    0.6782024577   -1.1460853407
C       -0.8494671461    0.0193824036   -0.0697080637
C       -1.7308882397   -0.4883149142    0.9035350322
N        0.5368242884   -0.1042098541   -0.0087251226
C        1.3636937798   -0.7194866773    0.8881425634
O        0.9663726381   -1.3060902089    1.8727111873
C        2.8551843835   -0.6206363705    0.6010085990
C        3.3483054066   -0.9452882913   -0.8011602695
C        3.5267423297    0.4520325215   -0.2551624443
C        2.8298455974    1.6508406044   -0.8978021355
H        3.4605541077   -1.0100483565    1.4144355357
H        4.5271813697    0.7246415426    0.0757882122
H       -4.6117096018    0.5513125238   -0.5541692768
H       -2.9261220295    1.3966002409   -2.1918473293
H       -1.3585839815   -1.0160486201    1.7712279380
H        0.9817776838    0.3477675377   -0.7812114015
H        4.2341176598   -1.5700499686   -0.8901777718
H        2.6114591174   -1.1041762612   -1.5855977625
H        2.0786976289    1.3571441243   -1.6397485359
H        2.3471749554    2.2781391093   -0.1383554664
H        3.5613470155    2.2755413164   -1.4243995517
C       -4.1016963191   -0.8406008317    1.7773182481
H       -4.6960401470   -0.0249063407    2.2051157231
H       -4.7923956329   -1.5569566290    1.3175553551
H       -3.5935274739   -1.3513402796    2.6037630748
28   
Iteration 11 Energy -0.17578961
C       -3.1134867472   -0.3086823034    0.7526666699
C       -3.5547809523    0.3806123375   -0.3819947065
C       -2.6104205104    0.8539673541   -1.3008691657
N       -1.2870244522    0.6772593409   -1.1469536970
C       -0.8489691724    0.0190553362   -0.0698947255
C       -1.7304894360   -0.4876990869    0.9036381116
N        0.5372266029   -0.1048851746   -0.0080263998
C        1.3645348164   -0.7205055957    0.8882232894
O        0.9666452439   -1.3077865305    1.8722195118
C        2.8557897596   -0.6214756403    0.6008833931
C        3.3483802818   -0.9448766989   -0.8017517163
C        3.5260899739    0.4520829191   -0.2550387571
C        2.8273025975    1.6504104476   -0.8962609167
H        3.4617629081   -1.0117279533    1.4134428565
H        4.5268043163    0.7249330504    0.0748796582
H       -4.6117439769    0.5513840181   -0.5555910460
H       -2.9243726819    1.3944409850   -2.1923452705
H       -1.3580920731   -1.0147022776    1.7717749154
H        0.9822978913    0.3476418630   -0.7802043466
H        4.2346725768   -1.5687195036   -0.8923063929
H        2.6111216637   -1.1028250102   -1.5859922184
H        2.0764181324    1.3560746287   -1.6382426712
H        2.3436967719    2.2761529558   -0.1361452310
H        3.5576476112    2.2768235568   -1.4224047541
C       -4.1010516213   -0.8389919455    1.7772703415
H       -4.6953849913   -0.0229930292    2.2044990904
H       -4.7918119665   -1.5556790165    1.3181178796
H       -3.5927611670   -1.3490869549    2.6040046738
28   
Iteration 12 Energy -0.17579059
C       -3.1134640276   -0.3080722251    0.7528831926
C       -3.5550696782    0.3797440256   -0.3825477715
C       -2.6107457671    0.8518118119   -1.3020930300
N       -1.2873458278    0.6752143130   -1.1481815096
C       -0.8488946286    0.0182524756   -0.0705220672
C       -1.7304637214   -0.4869468806    0.9037443151
N        0.5373122304   -0.1055163597   -0.0086314653
C        1.3645206474   -0.7221998077    0.8870139054
O        0.9664800184   -1.3107104030    1.8702306778
C        2.8557371855   -0.6224976690    0.6000564729
C        3.3491102410   -0.9441107468   -0.8026985205
C        3.5261264094    0.4522252119   -0.2543291881
C        2.8269314378    1.6508431641   -0.8944683493
H        3.4604002544   -1.0146485602    1.4126668838
H        4.5269121273    0.7248224864    0.0755875493
H       -4.6120586392    0.5503621610   -0.5561581163
H       -2.9247583086    1.3912074759   -2.1942005371
H       -1.3579176583   -1.0127041119    1.7725813030
H        0.9824237687    0.3478027665   -0.7803576364
H        4.2358809954   -1.5671312441   -0.8942451603
H        2.6123040911   -1.1004161730   -1.5876951800
H        2.0776263486    1.3567338282   -1.6381590593
H        2.3411790942    2.2745201150   -0.1340289296
H        3.5572891441    2.2792257800   -1.4182352027
C       -4.1007315358   -0.8369770652    1.7784570417
H       -4.6949116768   -0.0203969411    2.2047865014
H       -4.7916689506   -1.5542267590    1.3204512312
H       -3.5922021667   -1.3460085937    2.6056910206
28   
Iteration 13 Energy -0.17579207
C       -3.1132152841   -0.3067869642    0.7534461216
C       -3.5552269146    0.3772042135   -0.3841450694
C       -2.6111230891    0.8461956835   -1.3054847585
N       -1.2876779646    0.6701060004   -1.1514752346
C       -0.8488657476    0.0163856462   -0.0719936573
C       -1.7301638900   -0.4851964930    0.9043736722
N        0.5373700024   -0.1068350698   -0.0098123898
C        1.3643963476   -0.7259338892    0.8843633924
O        0.9661093520   -1.3174351297    1.8656993587
C        2.8556776944   -0.6250166396    0.5981968525
C        3.3493584036   -0.9423248974   -0.8054055652
C        3.5259696753    0.4524150070   -0.2528727070
C        2.8262414368    1.6525574419   -0.8895409646
H        3.4598269417   -1.0208351738    1.4094075102
H        4.5271171416    0.7240185723    0.0767684150
H       -4.6122622824    0.5473024478   -0.5579792484
H       -2.9253978506    1.3827334818   -2.1992218598
H       -1.3573037824   -1.0077093469    1.7750374415
H        0.9826119457    0.3480347433   -0.7805692526
H        4.2369746625   -1.5637801003   -0.8994296414
H        2.6129935554   -1.0962765709   -1.5912823725
H        2.0799019854    1.3600861603   -1.6368909327
H        2.3366164640    2.2715204223   -0.1277314296
H        3.5568077873    2.2851050755   -1.4079800502
C       -4.1001024852   -0.8321011653    1.7812194704
H       -4.6940368667   -0.0140221917    2.2050095771
H       -4.7913076822   -1.5508208279    1.3259290411
H       -3.5912881037   -1.3383882535    2.6099626673
28   
Iteration 14 Energy -0.17579620
C       -3.1120920023   -0.3023723292    0.7553543804
C       -3.5554586277    0.3676813035   -0.3899964718
C       -2.6124078997    0.8260796198   -1.3177199631
N       -1.2888033364    0.6521589287   -1.1628701724
C       -0.8487198552    0.0103050516   -0.0768061349
C       -1.7288525436   -0.4786799818    0.9069444189
N        0.5376636862   -0.1104509133   -0.0135075344
C        1.3641328691   -0.7385267312    0.8749939439
O        0.9650949078   -1.3406479766    1.8495866205
C        2.8555932519   -0.6340972353    0.5910394338
C        3.3495173872   -0.9362071278   -0.8157446033
C        3.5255264471    0.4526648675   -0.2484697248
C        2.8239785090    1.6587787591   -0.8716144043
H        3.4590045737   -1.0411840382    1.3972013924
H        4.5274699718    0.7207704264    0.0816195021
H       -4.6127130751    0.5354650931   -0.5647441826
H       -2.9276764200    1.3521924126   -2.2172858129
H       -1.3547955489   -0.9893377843    1.7841230451
H        0.9831923158    0.3494216658   -0.7811926193
H        4.2387509229   -1.5540878805   -0.9178114661
H        2.6137001877   -1.0819364128   -1.6037047947
H        2.0867572949    1.3731190560   -1.6306833714
H        2.3225729545    2.2614775098   -0.1044362178
H        3.5549702334    2.3050602127   -1.3722159005
C       -4.0977416574   -0.8150646357    1.7906361695
H       -4.6911770738    0.0081265623    2.2051206318
H       -4.7895356816   -1.5392116624    1.3449377957
H       -3.5879501958   -1.3112943738    2.6248444541
28   
Iteration 15 Energy -0.17580398
C       -3.1100614541   -0.2946710046    0.7586473688
C       -3.5561483286    0.3499254169   -0.4002089149
C       -2.6152338503    0.7895426625   -1.3391564529
N       -1.2912221695    0.6201710488   -1.1829849145
C       -0.8486734479    0.0000452567   -0.0853744985
C       -1.7263766602   -0.4665416783    0.9112847192
N        0.5379863289   -0.1157621399   -0.0200327973
C        1.3634678223   -0.7602513010    0.8576785410
O        0.9631366407   -1.3812398545    1.8198754142
C        2.8552712183   -0.6502423987    0.5774097108
C        3.3492861413   -0.9252126776   -0.8347684759
C        3.5250680947    0.4526418878   -0.2410924383
C        2.8209810720    1.6699213461   -0.8390374953
H        3.4578420570   -1.0755171992    1.3747576776
H        4.5278389595    0.7143881091    0.0915824167
H       -4.6138705061    0.5130598138   -0.5765062297
H       -2.9326022086    1.2966006972   -2.2488692744
H       -1.3498186534   -0.9555350485    1.7997080277
H        0.9838683045    0.3523953968   -0.7825930055
H        4.2399315826   -1.5387687033   -0.9498914775
H        2.6138315264   -1.0563140400   -1.6256410967
H        2.0980733453    1.3982417590   -1.6169615445
H        2.3015585225    2.2446633386   -0.0624332601
H        3.5524924057    2.3381987410   -1.3090828670
C       -4.0932546378   -0.7849143361    1.8070547967
H       -4.6861477705    0.0469184497    2.2047156728
H       -4.7857489955   -1.5188320891    1.3787596140
H       -3.5814734821   -1.2627085799    2.6507593537
28   
Iteration 16 Energy -0.17581762
C       -3.1070531002   -0.2838287243    0.7631389861
C       -3.5575003073    0.3233754523   -0.4141241081
C       -2.6201352965    0.7361709187   -1.3687591793
N       -1.2953955812    0.5742009669   -1.2110149556
C       -0.8489094027   -0.0139238863   -0.0975316804
C       -1.7225922339   -0.4484033943    0.9169161362
N        0.5381450376   -0.1218091111   -0.0293097595
C        1.3621575019   -0.7900195783    0.8319894012
O        0.9598968793   -1.4375689973    1.7757536676
C        2.8545027326   -0.6729743541    0.5568630895
C        3.3482170559   -0.9090411188   -0.8622729751
C        3.5247649688    0.4519660996   -0.2309332222
C        2.8180104072    1.6853014355   -0.7915586601
H        3.4563837687   -1.1223785567    1.3413926486
H        4.5282652411    0.7041632614    0.1068815279
H       -4.6160143434    0.4791009235   -0.5923246673
H       -2.9409968679    1.2152201964   -2.2923218699
H       -1.3418459680   -0.9056419861    1.8204184191
H        0.9842814199    0.3575862361   -0.7848317332
H        4.2393902137   -1.5182937560   -0.9949193271
H        2.6126677828   -1.0190030877   -1.6562869946
H        2.1134841116    1.4362683230   -1.5937740318
H        2.2762586404    2.2212219295   -0.0025251977
H        3.5499731010    2.3812665134   -1.2187979330
C       -4.0863337515   -0.7419097800    1.8296379203
H       -4.6789666769    0.1013449555    2.2028717322
H       -4.7793301025   -1.4896380720    1.4267890302
H       -3.5713229930   -1.1925493237    2.6862324094
28   
Iteration 17 Energy -0.17584156
C       -3.1025329678   -0.2691761810    0.7691445374
C       -3.5603274006    0.2827665717   -0.4323160751
C       -2.6294133557    0.6581630774   -1.4087382882
N       -1.3032540416    0.5093197701   -1.2495231825
C       -0.8501245700   -0.0310668169   -0.1148133065
C       -1.7165772385   -0.4205806382    0.9236138469
N        0.5374581115   -0.1251917463   -0.0422508580
C        1.3587750922   -0.8279558711    0.7937125515
O        0.9530757215   -1.5115432694    1.7102335176
C        2.8521748878   -0.7041936829    0.5253896025
C        3.3441698958   -0.8856229712   -0.9021554751
C        3.5255395847    0.4491998490   -0.2178404929
C        2.8182380179    1.7062200847   -0.7224472400
H        3.4543394735   -1.1833941539    1.2918768210
H        4.5290529769    0.6858468728    0.1310018703
H       -4.6202972208    0.4257634504   -0.6124250214
H       -2.9565880235    1.0956765571   -2.3505174190
H       -1.3282294088   -0.8314136590    1.8461481763
H        0.9835805786    0.3684413005   -0.7886494060
H        4.2319385281   -1.4945971306   -1.0570414632
H        2.6068372985   -0.9654428877   -1.6981350045
H        2.1348248232    1.4948606606   -1.5534463319
H        2.2523809744    2.1903598390    0.0830049318
H        3.5515543641    2.4333619131   -1.0915370973
C       -4.0752803346   -0.6822654940    1.8599086081
H       -4.6691716736    0.1748557577    2.1978780605
H       -4.7674214609   -1.4496361023    1.4942239491
H       -3.5547198198   -1.0925505546    2.7332991765
28   
Iteration 18 Energy -0.17587374
C       -3.1010772207   -0.2679981419    0.7704904407
C       -3.5630703243    0.2692950568   -0.4360398223
C       -2.6364756175    0.6394635931   -1.4188837404
N       -1.3091891540    0.4988517242   -1.2603395457
C       -0.8523656796   -0.0276630777   -0.1206996323
C       -1.7140031849   -0.4107167286    0.9238922522
N        0.5352980982   -0.1140966486   -0.0454576941
C        1.3534929044   -0.8282500429    0.7835031422
O        0.9441158437   -1.5173283675    1.6941814012
C        2.8478989879   -0.7106960407    0.5159707806
C        3.3378912694   -0.8827767283   -0.9134432617
C        3.5285747179    0.4449377309   -0.2172560867
C        2.8291539723    1.7129326726   -0.7055185941
H        3.4513581165   -1.1891146123    1.2819650245
H        4.5299524213    0.6733402394    0.1430129828
H       -4.6240701202    0.4050413476   -0.6156042714
H       -2.9678776656    1.0655413888   -2.3644205214
H       -1.3203736053   -0.8108264763    1.8490620662
H        0.9819365560    0.3789746957   -0.7917915481
H        4.2156935988   -1.5061194738   -1.0677490738
H        2.5973584069   -0.9549336210   -1.7071846632
H        2.1395896735    1.5159802868   -1.5348527366
H        2.2723599423    2.1943861228    0.1078277580
H        3.5669885335    2.4370639844   -1.0715380757
C       -4.0702027240   -0.6748112340    1.8670609049
H       -4.6675374989    0.1828406612    2.1975298622
H       -4.7591421907   -1.4492048896    1.5102354356
H       -3.5462750348   -1.0739081425    2.7436466351
28   
Iteration 19 Energy -0.17590818
C       -3.0978958822   -0.2586352302    0.7734562571
C       -3.5672006951    0.2411139659   -0.4463617610
C       -2.6451608409    0.5874101138   -1.4421317366
N       -1.3165474467    0.4580467893   -1.2848600375
C       -0.8538649702   -0.0358682764   -0.1331501398
C       -1.7097708917   -0.3902754815    0.9256466192
N        0.5339046700   -0.1115400428   -0.0541652211
C        1.3488736230   -0.8492516975    0.7570668332
O        0.9341992304   -1.5605831762    1.6481473356