28
Properties=species:S:1:pos:R:3 Iteration=T 39=T Energy=T -0.17874385=T pbc="F F F"
C       -3.04391220      -0.34879549       1.15735719
C       -3.79903495      -0.37767328      -0.02067623
C       -3.14278209      -0.54384870      -1.24716685
N       -1.80894373      -0.67289158      -1.35211760
C       -1.07415345      -0.62379360      -0.23801554
C       -1.65339313      -0.48266570       1.03500470
N        0.29491765      -0.79275216      -0.41957026
C        1.33330841      -0.31057152       0.32423336
O        1.20320277       0.27963325       1.37763577
C        2.68434047      -0.60917115      -0.27798251
C        2.98592225      -0.17944343      -1.70250946
C        3.66796523       0.51427016      -0.54397503
C        3.35230975       1.96982133      -0.21846987
H        3.10625390      -1.55597263       0.04447908
H        4.71718132       0.27896491      -0.37778741
H       -4.87878991      -0.27843326       0.00592915
H       -3.70542664      -0.57839091      -2.17864315
H       -1.03040590      -0.47839016       1.92128188
H        0.52076922      -1.20316850      -1.30458344
H        3.59029448      -0.84136059      -2.31831101
H        2.22835510       0.37990085      -2.24804615
H        2.31375258       2.22714740      -0.45972849
H        3.50604772       2.16833882       0.84909265
H        4.00428669       2.64482193      -0.78508845
C       -3.71121764      -0.17986288       2.51080173
H       -4.18074780       0.80733180       2.59211260
H       -4.48913609      -0.93751940       2.66051537
H       -2.99095331      -0.27532575       3.33182817
