28
Properties=species:S:1:pos:R:3 Iteration=T 14=T Energy=T -611.64595309=T pbc="F F F"
C       -3.12709846      -0.40931034       0.67135191
C       -3.60781557       0.55573546      -0.22088874
C       -2.69468772       1.35134749      -0.89535637
N       -1.37340232       1.25331294      -0.75151060
C       -0.92228886       0.32942809       0.09918195
C       -1.75125521      -0.52395659       0.83604764
N        0.47077660       0.30169999       0.16874138
C        1.27893575      -0.48246784       0.94848460
O        0.85766173      -1.27894508       1.77206888
C        2.75703476      -0.33083511       0.74757751
C        3.46039593      -1.05462936      -0.37916226
C        3.53086793       0.43830544      -0.30159340
C        2.95395579       1.29424135      -1.40370947
H        3.25498745      -0.41685099       1.70943493
H        4.46219717       0.83785946       0.09686865
H       -4.67418764       0.68479871      -0.38303424
H       -3.03707412       2.11287416      -1.59397704
H       -1.30848107      -1.24086483       1.51484578
H        0.89653802       1.00833790      -0.41330147
H        4.32725448      -1.66143174      -0.13608050
H        2.82669196      -1.46862337      -1.16028382
H        2.14654394       0.79205308      -1.94764348
H        2.58320135       2.25856024      -1.03379124
H        3.73477993       1.51150523      -2.14033442
C       -4.07084200      -1.29413490       1.43136413
H       -4.75244914      -0.69868411       2.04948744
H       -4.68939679      -1.88481392       0.74619877
H       -3.53284174      -1.98430876       2.08661169
