28   
Iteration 0 Energy -0.17278292
C       -3.2022117300   -0.1515608700    0.6324602700
C       -3.8811391500   -1.0368897900   -0.2113301800
C       -3.1497100900   -1.7608303700   -1.1406379000
N       -1.8281616500   -1.6667331900   -1.2841764400
C       -1.1873239800   -0.8193763500   -0.4761707800
C       -1.8228223400   -0.0407220500    0.4970271900
N        0.1874946400   -0.7954184800   -0.7089228100
C        1.1621730000   -0.0486876200   -0.0930703000
O        0.9226845800    0.7641595700    0.7879266600
C        2.5118731600   -0.2639753600   -0.6906435900
C        3.1672854400    0.9773181900   -1.2822369100
C        3.7844120500    0.3112068700   -0.1042975700
C        3.8650392700    0.9663206700    1.2505726500
H        2.6252457800   -1.1790367500   -1.2675050600
H        4.6488160500   -0.3079201000   -0.3418327200
H       -4.9581921800   -1.1597085500   -0.1428925500
H       -3.6469899600   -2.4595238900   -1.8113072400
H       -1.2368113200    0.6243546800    1.1176449000
H        0.4568969500   -1.4264314400   -1.4517433300
H        3.6301097500    0.8908551300   -2.2608647400
H        2.6392360400    1.9098608800   -1.1012671500
H        2.9776007800    1.5649786100    1.4559251000
H        3.9491514900    0.2126113000    2.0410544100
H        4.7531601800    1.6067805100    1.2988902600
C       -3.9415000600    0.6629092100    1.6534151800
H       -4.6230542200    1.3704307800    1.1667930200
H       -4.5495524800    0.0222118900    2.3016067700
H       -3.2537078600    1.2330200400    2.2831802000
28   
Iteration 1 Energy -0.17539832
C       -3.2722694789   -0.1615951142    0.6315464107
C       -3.9041628836   -1.0589869716   -0.2346070680
C       -3.1267419998   -1.7594987735   -1.1459412442
N       -1.8028661403   -1.6294491528   -1.2493639567
C       -1.1975854165   -0.7718585304   -0.4232321158
C       -1.8911611090   -0.0171358292    0.5338006563
N        0.1838613417   -0.7213628379   -0.6268750155
C        1.1869797122    0.0078776918   -0.0340927808
O        1.0092873227    0.8331291479    0.8469581038
C        2.5130747824   -0.2519521828   -0.6741393421
C        3.1876030940    0.9632037660   -1.2981150254
C        3.8271927141    0.2853750586   -0.1376572254
C        3.9842066033    0.9478989712    1.2096651233
H        2.5766832962   -1.1738629627   -1.2473448765
H        4.6616952187   -0.3635395575   -0.4003878403
H       -4.9790206875   -1.2097149881   -0.1981124476
H       -3.5856961745   -2.4673859145   -1.8340832004
H       -1.3496856850    0.6613440501    1.1778199358
H        0.4530399670   -1.3518990195   -1.3682783249
H        3.6131084915    0.8522810879   -2.2912972018
H        2.6976220688    1.9148069020   -1.1080250682
H        3.1294200908    1.5806373514    1.4484998731
H        4.0737058872    0.1967314726    2.0021170991
H        4.8952712918    1.5571769520    1.2178701606
C       -4.0610174121    0.6299922008    1.6358757007
H       -4.7459758105    1.3228023328    1.1331705703
H       -4.6706359359   -0.0291207313    2.2639514173
H       -3.4059309972    1.2143090953    2.2878750185
28   
Iteration 2 Energy -0.17498861
C       -3.3295939524   -0.1699486502    0.6245602954
C       -3.9428964217   -1.0702569804   -0.2518435456
C       -3.1712661213   -1.7826890163   -1.1728185928
N       -1.8395422948   -1.6413606914   -1.2599187256
C       -1.2132768135   -0.7894690738   -0.4408116482
C       -1.9401188883   -0.0449644619    0.5088988425
N        0.1693679963   -0.7297903869   -0.6283545218
C        1.1387458180    0.0144157026   -0.0095223785
O        0.8656971022    0.8190298292    0.8574741246
C        2.5073188474   -0.2212749391   -0.6203114986
C        3.1835193382    0.9789307857   -1.2719114878
C        3.8716607329    0.2889530660   -0.1354510718
C        4.1570741495    0.9706175659    1.1988574158
H        2.5528206174   -1.1468221117   -1.1872194827
H        4.6842528042   -0.3793324398   -0.4129734190
H       -5.0165346812   -1.2224629978   -0.2223653348
H       -3.6311029799   -2.4889510683   -1.8621509063
H       -1.4226744380    0.6389923219    1.1659796009
H        0.4636530976   -1.3493695282   -1.3597993406
H        3.5960410667    0.8281728435   -2.2664577124
H        2.7259334865    1.9512039479   -1.0978932302
H        3.3821691171    1.6700253838    1.5147463481
H        4.2706111597    0.2241267620    1.9935291897
H        5.0957007288    1.5330016818    1.1333213791
C       -4.1289198794    0.6253442838    1.6345738608
H       -4.8105996756    1.3196481536    1.1296902612
H       -4.7378078468   -0.0374722273    2.2603078016
H       -3.4802298617    1.2119059878    2.2954614858
28   
Iteration 3 Energy -0.17794062
C       -3.2897866328   -0.1689512407    0.6240061491
C       -3.9312943065   -1.0595489290   -0.2435176205
C       -3.1703970841   -1.7754237378   -1.1750551246
N       -1.8370305118   -1.6419220928   -1.2733240965
C       -1.2036874571   -0.7952464224   -0.4551414836
C       -1.8979219163   -0.0391604439    0.5102543031
N        0.1763209280   -0.7416933334   -0.6514319553
C        1.1412947573    0.0019773129   -0.0292604661
O        0.9386808006    0.8194254057    0.8439795512
C        2.5061121895   -0.2454360486   -0.6469230918
C        3.1728962437    0.9658376018   -1.2853924644
C        3.8439913186    0.2810084891   -0.1275285777
C        4.0702322502    0.9753566217    1.2132373382
H        2.5648770190   -1.1712430243   -1.2119971977
H        4.6826092157   -0.3682288060   -0.3697290674
H       -5.0056251518   -1.2013875507   -0.2015975218
H       -3.6413643863   -2.4763721702   -1.8623065370
H       -1.3757223842    0.6416007864    1.1680019008
H        0.4702035663   -1.3579446735   -1.3834524771
H        3.6016711269    0.8358236343   -2.2762843717
H        2.7019630962    1.9321702701   -1.1128132634
H        3.2682120469    1.6653363797    1.4898886540
H        4.1668191050    0.2365074338    2.0174705410
H        4.9987394678    1.5573806357    1.1838928148
C       -4.0802314357    0.6279869460    1.6453526085
H       -4.7612975304    1.3283837063    1.1481984030
H       -4.6856962853   -0.0353022789    2.2740666021
H       -3.4245660539    1.2092694516    2.3050043422
28   
Iteration 4 Energy -0.17808209
C       -3.2707512648   -0.1632465353    0.6403019533
C       -3.9289116983   -1.0449453848   -0.2246553824
C       -3.1723924362   -1.7549751195   -1.1658695593
N       -1.8392632709   -1.6382677653   -1.2898847303
C       -1.1953594493   -0.7997609164   -0.4735067777
C       -1.8788501848   -0.0485021207    0.5017967633
N        0.1823481858   -0.7450990965   -0.6758254939
C        1.1824777822   -0.0260082114   -0.0835820371
O        0.9765676741    0.7858071236    0.7949268143
C        2.5464790767   -0.2777251631   -0.6961376828
C        3.2070382799    0.9489933114   -1.3090004591
C        3.8378236518    0.2769285183   -0.1166655482
C        3.9530345376    0.9853381550    1.2292314042
H        2.6354775914   -1.2032777552   -1.2579103790
H        4.7119923574   -0.3424693092   -0.3056557572
H       -5.0033850358   -1.1836150654   -0.1747336137
H       -3.6564279464   -2.4487113644   -1.8513367977
H       -1.3447918189    0.6257918740    1.1578658707
H        0.4581390520   -1.3624329058   -1.4138649686
H        3.6740333598    0.8442767477   -2.2853947399
H        2.7126995552    1.9050930114   -1.1464609253
H        3.1041615299    1.6490003394    1.4301390455
H        4.0156226170    0.2573606994    2.0465913182
H        4.8596280392    1.6007650692    1.2620970514
C       -4.0394343225    0.6351431009    1.6796825157
H       -4.7208552663    1.3457945507    1.1978031039
H       -4.6390344860   -0.0269238141    2.3152170312
H       -3.3680640837    1.2058720021    2.3324298935
28   
Iteration 5 Energy -0.17879127
C       -3.2771645219   -0.1702378664    0.6381252461
C       -3.9270890043   -1.0471171977   -0.2372041411
C       -3.1738892166   -1.7508356219   -1.1850944283
N       -1.8407363412   -1.6217990638   -1.2963696093
C       -1.2049396396   -0.7867735362   -0.4696070252
C       -1.8855595081   -0.0419997150    0.5130738971
N        0.1733542498   -0.7311885698   -0.6721677406
C        1.1580748293   -0.0043300100   -0.0628286666
O        0.9549845045    0.8055651158    0.8176082599
C        2.5232459788   -0.2686869005   -0.6707476367
C        3.2068680905    0.9337650297   -1.3061702947
C        3.8379132689    0.2662868331   -0.1133107454
C        3.9958476148    1.0007568698    1.2153853967
H        2.5911935704   -1.2021051278   -1.2220835296
H        4.6982479504   -0.3714103845   -0.3051095900
H       -5.0015269812   -1.1874007647   -0.1895944654
H       -3.6532102659   -2.4402928589   -1.8781450997
H       -1.3554708464    0.6280929552    1.1761039812
H        0.4572838358   -1.3439882241   -1.4113197035
H        3.6766202580    0.7942313317   -2.2767603238
H        2.7438054287    1.9080860191   -1.1606221545
H        3.1810538069    1.7046877475    1.4133928195
H        4.0411861998    0.2901566866    2.0489579724
H        4.9259469108    1.5809060499    1.2207420483
C       -4.0573332012    0.6121805448    1.6804883258
H       -4.7402018497    1.3237639970    1.2020402961
H       -4.6556306861   -0.0601515776    2.3063453951
H       -3.3928725112    1.1800423026    2.3424694567
28   
Iteration 6 Energy -0.17882773
C       -3.2760294008   -0.1751169560    0.6412670177
C       -3.9361147995   -1.0409364617   -0.2370895376
C       -3.1815067824   -1.7348047224   -1.1910386032
N       -1.8482189242   -1.6130856507   -1.3110349143
C       -1.1991586348   -0.7892105587   -0.4834283675
C       -1.8847423362   -0.0565596343    0.5048816525
N        0.1788480364   -0.7364497148   -0.6898981330
C        1.1528632977   -0.0052568363   -0.0684033690
O        0.9532473265    0.8028307138    0.8143054738
C        2.5207989455   -0.2724258724   -0.6687994570
C        3.2168893953    0.9187955995   -1.3099658006
C        3.8323361488    0.2630664655   -0.1021620501
C        3.9763942687    1.0211184710    1.2151676770
H        2.5890404005   -1.2108960457   -1.2113404552
H        4.6964788916   -0.3744541775   -0.2766533813
H       -5.0107611279   -1.1791764416   -0.1877588403
H       -3.6647738519   -2.4168374746   -1.8886803544
H       -1.3504460082    0.6056966440    1.1723080241
H        0.4661737936   -1.3455456233   -1.4309311770
H        3.7019464826    0.7656828235   -2.2709068633
H        2.7638484071    1.9001401594   -1.1811841445
H        3.1715738078    1.7444474001    1.3810966265
H        3.9911423831    0.3270161873    2.0636026925
H        4.9162538483    1.5851932340    1.2278336751
C       -4.0427958879    0.6032030578    1.6965695842
H       -4.7241078502    1.3240897186    1.2299753966
H       -4.6401648924   -0.0706397409    2.3216746874
H       -3.3690129925    1.1603196671    2.3581909697
28   
Iteration 7 Energy -0.17901627
C       -3.2720613744   -0.1777667205    0.6472439824
C       -3.9304999495   -1.0344748060   -0.2410608759
C       -3.1829018427   -1.7219958318   -1.2046265745
N       -1.8496557782   -1.5968985664   -1.3198299595
C       -1.2034812467   -0.7809215873   -0.4823469039
C       -1.8809011683   -0.0553731194    0.5163147062
N        0.1744357004   -0.7286121304   -0.6890170939
C        1.1556821248   -0.0036097728   -0.0715437216
O        0.9565698992    0.8035975380    0.8124395479
C        2.5220847636   -0.2788151223   -0.6697945826
C        3.2305141467    0.8995315982   -1.3187020846
C        3.8303038685    0.2551901470   -0.0960782917
C        3.9608666750    1.0378489331    1.2077980917
H        2.5882092634   -1.2228477961   -1.2029512261
H        4.6971494576   -0.3831103489   -0.2537006625
H       -5.0053669152   -1.1712219179   -0.1914043764
H       -3.6675698293   -2.3963329533   -1.9087426107
H       -1.3440210867    0.5985327206    1.1900127300
H        0.4579764614   -1.3368528002   -1.4326097642
H        3.7269034348    0.7346738957   -2.2718329721
H        2.7887936536    1.8876912606   -1.2042646614
H        3.1686229632    1.7828078604    1.3359622441
H        3.9388698723    0.3626752497    2.0711950506
H        4.9124217272    1.5816119278    1.2309019724
C       -4.0416931324    0.5876497027    1.7095359248
H       -4.7223071753    1.3136230742    1.2498570518
H       -4.6393122686   -0.0938296702    2.3260275811
H       -3.3696303525    1.1374336306    2.3788155870
28   
Iteration 8 Energy -0.17909431
C       -3.2711913739   -0.1835138542    0.6519852944
C       -3.9344420070   -1.0258839192   -0.2466917245
C       -3.1852780251   -1.7012997664   -1.2170905822
N       -1.8520247112   -1.5806547045   -1.3320914657
C       -1.2071372806   -0.7762766323   -0.4828262403
C       -1.8796781478   -0.0613748594    0.5263117590
N        0.1712002825   -0.7254335936   -0.6861453931
C        1.1584830534   -0.0039604434   -0.0740258532
O        0.9562169994    0.8051372701    0.8079712332
C        2.5247975658   -0.2848811846   -0.6680254398
C        3.2437515202    0.8796090619   -1.3275662433
C        3.8290765894    0.2506397255   -0.0888203630
C        3.9495140609    1.0603071490    1.1989654696
H        2.5921498558   -1.2358741225   -1.1886674017
H        4.6975814687   -0.3893739785   -0.2295801595
H       -5.0097244708   -1.1603406336   -0.1995704301
H       -3.6711076111   -2.3652519002   -1.9302148475
H       -1.3404599535    0.5810262891    1.2093122205
H        0.4522551434   -1.3344169808   -1.4303438321
H        3.7510455236    0.7009239827   -2.2724171783
H        2.8102516120    1.8731186924   -1.2298912691
H        3.1798900238    1.8352961196    1.2827201727
H        3.8769744695    0.4083572432    2.0773287849
H        4.9186519459    1.5711046055    1.2381474575
C       -4.0389776496    0.5695757839    1.7237892544
H       -4.7165451701    1.3042680668    1.2735545029
H       -4.6395831872   -0.1182554098    2.3302286298
H       -3.3656887361    1.1076325366    2.4012519333
28   
Iteration 9 Energy -0.17914615
C       -3.2667883821   -0.1861918840    0.6634546141
C       -3.9270758946   -1.0106737571   -0.2537835803
C       -3.1891904441   -1.6779283218   -1.2384681990
N       -1.8550919557   -1.5621042741   -1.3490864545
C       -1.2062793237   -0.7749448846   -0.4865322248
C       -1.8746571296   -0.0742262640    0.5354877551
N        0.1727243773   -0.7299578758   -0.6868433627
C        1.1612716648   -0.0068005476   -0.0787853386
O        0.9618240991    0.8087954922    0.7979525160
C        2.5279445944   -0.2945999900   -0.6682618226
C        3.2567064832    0.8549748736   -1.3402297395
C        3.8240990917    0.2493259052   -0.0799118571
C        3.9247950083    1.0894108851    1.1899703187
H        2.6004158074   -1.2549404386   -1.1707704242
H        4.6961364369   -0.3906567968   -0.1966302143
H       -5.0031226207   -1.1394517214   -0.2092904582
H       -3.6811727406   -2.3264244129   -1.9615320944
H       -1.3299909424    0.5513150128    1.2297002340
H        0.4526170880   -1.3408496503   -1.4296871920
H        3.7786655969    0.6592045722   -2.2736944604
H        2.8261425001    1.8518148776   -1.2661983313
H        3.1845404502    1.8972350806    1.2170696228
H        3.7845768021    0.4662380937    2.0810054743
H        4.9123909580    1.5600335194    1.2597799672
C       -4.0319384201    0.5520232752    1.7474602506
H       -4.7041891055    1.2987910456    1.3092798635
H       -4.6382405099   -0.1429909687    2.3399203082
H       -3.3571118500    1.0737837806    2.4362232033
28   
Iteration 10 Energy -0.17922762
C       -3.2644498021   -0.1889051839    0.6629644450
C       -3.9310507268   -1.0054598900   -0.2567806827
C       -3.1911470534   -1.6696048419   -1.2422291037
N       -1.8563647851   -1.5572908434   -1.3495057858
C       -1.2030614753   -0.7765084645   -0.4843110095
C       -1.8716393996   -0.0791102895    0.5400451585
N        0.1763629447   -0.7371282224   -0.6830804981
C        1.1624938605   -0.0071324960   -0.0794647108
O        0.9614874833    0.8160397374    0.7898417699
C        2.5301335855   -0.2965059622   -0.6660314167
C        3.2551566121    0.8523706865   -1.3437558678
C        3.8249687643    0.2541816107   -0.0811235858
C        3.9209103321    1.0953194485    1.1883264547
H        2.6058213193   -1.2600591361   -1.1617932184
H        4.6972542751   -0.3859361265   -0.1951487895
H       -5.0076330309   -1.1301419207   -0.2138358173
H       -3.6827971193   -2.3135353948   -1.9695902329
H       -1.3278177485    0.5411551546    1.2395323000
H        0.4567907402   -1.3522097148   -1.4221026435
H        3.7776683923    0.6528385038   -2.2761224204
H        2.8168584582    1.8462822894   -1.2756363141
H        3.1880943515    1.9104318604    1.2046025112
H        3.7612789379    0.4753712569    2.0783779674
H        4.9132397595    1.5537936121    1.2707063251
C       -4.0274910225    0.5474665072    1.7497505940
H       -4.6960908219    1.2991569875    1.3144120127
H       -4.6379495177   -0.1476040552    2.3378664794
H       -3.3510257830    1.0629295200    2.4416844615
28   
Iteration 11 Energy -0.17933252
C       -3.2606604179   -0.1936835222    0.6657810141
C       -3.9331174382   -0.9888062239   -0.2687760033
C       -3.1888310270   -1.6438486386   -1.2572837388
N       -1.8526078548   -1.5462621693   -1.3590631802
C       -1.1975056867   -0.7829065518   -0.4798653150
C       -1.8659562048   -0.0961508449    0.5516512987
N        0.1837663684   -0.7550131342   -0.6660915335
C        1.1625658871   -0.0030800348   -0.0782383457
O        0.9580505841    0.8460225662    0.7652400579
C        2.5327259104   -0.3018664205   -0.6538647526
C        3.2473837368    0.8418630929   -1.3533531771
C        3.8268068572    0.2671202655   -0.0853534111
C        3.9156333259    1.1121542634    1.1814794000
H        2.6134168072   -1.2755904652   -1.1283882035
H        4.6977389335   -0.3761161828   -0.1921515035
H       -5.0110958581   -1.1038830499   -0.2347216932
H       -3.6820047505   -2.2726687286   -1.9967303997
H       -1.3191816021    0.5061149124    1.2645794613
H        0.4691935194   -1.3832962855   -1.3918768974
H        3.7651445207    0.6293031289   -2.2854757502
H        2.7894759273    1.8279637737   -1.3028445001
H        3.2075387040    1.9492496829    1.1700287244
H        3.7050120067    0.5039208821    2.0690586867
H        4.9208413305    1.5347205263    1.2940576206
C       -4.0206931208    0.5347322136    1.7600796152
H       -4.6780966151    1.3008818307    1.3329631320
H       -4.6436190906   -0.1617923421    2.3331993178
H       -3.3419234026    1.0311222079    2.4635586049
28   
Iteration 12 Energy -0.17937925
C       -3.2557905564   -0.1987971775    0.6720052843
C       -3.9327855937   -0.9692531967   -0.2796187399
C       -3.1926451164   -1.6140997666   -1.2782901187
N       -1.8548016748   -1.5263279663   -1.3715891360
C       -1.1937945030   -0.7846225673   -0.4782407252
C       -1.8597016565   -0.1125901775    0.5646852048
N        0.1885918001   -0.7686870237   -0.6569384462
C        1.1642520477   -0.0022446631   -0.0831393462
O        0.9528009226    0.8662694288    0.7384541368
C        2.5379433117   -0.3121974196   -0.6458723667
C        3.2521789681    0.8196908642   -1.3651254084
C        3.8267973018    0.2742109702   -0.0820745146
C        3.8992719119    1.1383345583    1.1731776219
H        2.6233723814   -1.2960876255   -1.0980245621
H        4.6999269705   -0.3690845183   -0.1683087062
H       -5.0119513191   -1.0739061578   -0.2508413256
H       -3.6890245092   -2.2246805949   -2.0307660523
H       -1.3098493717    0.4690329017    1.2923040919
H        0.4750408872   -1.4066004462   -1.3736312835
H        3.7732706792    0.5893484561   -2.2911786977
H        2.7870532932    1.8034255673   -1.3395203078
H        3.2170611115    1.9954254920    1.1239434700
H        3.6402130214    0.5523863506    2.0629755919
H        4.9124054411    1.5328690789    1.3131361920
C       -4.0127699411    0.5157523055    1.7779237612
H       -4.6599237080    1.2975376939    1.3636847263
H       -4.6455022193   -0.1854026470    2.3344312290
H       -3.3316386652    0.9905031287    2.4940370005
28   
Iteration 13 Energy -0.17943331
C       -3.2501311689   -0.2044664605    0.6795703201
C       -3.9301848954   -0.9436666990   -0.2943088611
C       -3.1951997582   -1.5749809100   -1.3054164182
N       -1.8558066227   -1.5015958800   -1.3900221033
C       -1.1915245003   -0.7873003016   -0.4772269505
C       -1.8527161740   -0.1338865356    0.5799262850
N        0.1922251292   -0.7855399825   -0.6435175918
C        1.1630811121   -0.0000309862   -0.0878761237
O        0.9434607531    0.8944415177    0.7032774917
C        2.5414897881   -0.3247201901   -0.6305873209
C        3.2554560244    0.7901639687   -1.3762663240
C        3.8260993620    0.2810786228   -0.0771237309
C        3.8817673892    1.1703603782    1.1612066148
H        2.6304996605   -1.3200154686   -1.0563559166
H        4.7016470620   -0.3616279115   -0.1402614265
H       -5.0107159095   -1.0353618673   -0.2728134073
H       -3.6960157040   -2.1617214933   -2.0737495012
H       -1.2964682588    0.4206708029    1.3239848386
H        0.4814326342   -1.4362774253   -1.3476096646
H        3.7798507528    0.5356038224   -2.2940480829
H        2.7875065965    1.7728832313   -1.3805660025
H        3.2216112479    2.0413024997    1.0726907429
H        3.5841189647    0.6104886806    2.0557184510
H        4.8989880612    1.5460907977    1.3217760088
C       -4.0038630737    0.4917296757    1.7994082168
H       -4.6376712696    1.2929524361    1.4020094948
H       -4.6486157508   -0.2148749452    2.3348039089
H       -3.3203204041    0.9385055736    2.5309756085
28   
Iteration 14 Energy -0.17950567
C       -3.2419337204   -0.2132757126    0.6904692814
C       -3.9266906783   -0.9000870787   -0.3178127673
C       -3.1991323533   -1.5087676534   -1.3481013285
N       -1.8576658414   -1.4604619465   -1.4194452853
C       -1.1886976073   -0.7921809612   -0.4761713392
C       -1.8428214019   -0.1694330649    0.6027858692
N        0.1967444138   -0.8145910485   -0.6210026772
C        1.1597795290   -0.0001510496   -0.0946223973
O        0.9246772792    0.9325831141    0.6464657011
C        2.5461113818   -0.3457228164   -0.6037039529
C        3.2601868188    0.7405866663   -1.3901210012
C        3.8237710868    0.2902689953   -0.0669966013
C        3.8563412833    1.2225482280    1.1402481144
H        2.6405702134   -1.3564415081   -0.9901773773
H        4.7043213011   -0.3480855810   -0.0949868604
H       -5.0090424769   -0.9697352738   -0.3077895470
H       -3.7065126980   -2.0555670248   -2.1411887129
H       -1.2766922281    0.3405325231    1.3715363171
H        0.4902956846   -1.4856083670   -1.3040826376
H        3.7890868202    0.4484778496   -2.2940080448
H        2.7936690420    1.7227797754   -1.4394023960
H        3.2128798993    2.0991338611    1.0018901521
H        3.5288219171    0.6994735043    2.0465203420
H        4.8734485786    1.5929098609    1.3135611303
C       -3.9905916291    0.4531034042    1.8316894737
H       -4.6019856138    1.2846966775    1.4625620797
H       -4.6550029728   -0.2603927824    2.3327905346
H       -3.3039351533    0.8536123805    2.5866925442
28   
Iteration 15 Energy -0.17957193
C       -3.2364090590   -0.2178031178    0.6951713644
C       -3.9250979342   -0.8735522354   -0.3310800967
C       -3.2023081303   -1.4697185685   -1.3720435635
N       -1.8600291532   -1.4381300081   -1.4373699488
C       -1.1879175057   -0.7977591544   -0.4774067102
C       -1.8366936278   -0.1913526377    0.6132794072
N        0.1980720627   -0.8353937552   -0.6084058314
C        1.1557139608   -0.0057387718   -0.0966036740
O        0.9104710929    0.9439082516    0.6194997971
C        2.5468363698   -0.3583958695   -0.5868936333
C        3.2606340359    0.7127528801   -1.3937422687
C        3.8199483743    0.2939136236   -0.0587237369
C        3.8425327186    1.2529071983    1.1276761783
H        2.6454621951   -1.3754557293   -0.9552664073
H        4.7049787057   -0.3387381837   -0.0700580886
H       -5.0083165449   -0.9289419983   -0.3267450491
H       -3.7140601385   -1.9926107611   -2.1783330828
H       -1.2634064645    0.2937968552    1.3932205161
H        0.4947065777   -1.5169883063   -1.2796302568
H        3.7938921620    0.4017393997   -2.2887032433
H        2.7991905317    1.6960223161   -1.4646868180
H        3.1860921814    2.1169582487    0.9736417602
H        3.5298860870    0.7447430368    2.0475488581
H        4.8542083761    1.6443486544    1.2858115931
C       -3.9808289669    0.4332003120    1.8477936318
H       -4.5784391334    1.2817227852    1.4949700638
H       -4.6571436000   -0.2819861607    2.3301988090
H       -3.2919742710    0.8067565420    2.6144789250
28   
Iteration 16 Energy -0.17964980
C       -3.2309601133   -0.2244322928    0.7003481852
C       -3.9256371303   -0.8371754018   -0.3485728509
C       -3.2053159112   -1.4152900406   -1.4015022990
N       -1.8624670371   -1.4062625389   -1.4591291192
C       -1.1865661471   -0.8032691850   -0.4779748805
C       -1.8306539675   -0.2199937844    0.6273627008
N        0.1997023605   -0.8611086307   -0.5917112389
C        1.1513085901   -0.0149950277   -0.0965123488
O        0.8955827125    0.9528184560    0.5914930686
C        2.5472207653   -0.3747464995   -0.5658997868
C        3.2637732329    0.6753180220   -1.3975483892
C        3.8135089785    0.2965894502   -0.0465059088
C        3.8271289990    1.2942219615    1.1075548888
H        2.6524315973   -1.3999231071   -0.9089997179
H        4.7032570846   -0.3294364450   -0.0367881430
H       -5.0096535698   -0.8736695069   -0.3523335671
H       -3.7208432066   -1.9060645794   -2.2253836986
H       -1.2506212237    0.2305901195    1.4234943362
H        0.4996723932   -1.5561928606   -1.2473046872
H        3.8067376981    0.3410630598   -2.2781832320
H        2.8076824339    1.6586943112   -1.4962262547
H        3.1424165257    2.1331667679    0.9376273701
H        3.5461564676    0.8069290075    2.0486511757
H        4.8290715628    1.7204470409    1.2346593019
C       -3.9702851588    0.4054948085    1.8674477231
H       -4.5500449529    1.2750100794    1.5366243354
H       -4.6631138129   -0.3108179343    2.3240538144
H       -3.2794881084    0.7432393632    2.6488571799
28   
Iteration 17 Energy -0.17968064
C       -3.2307187656   -0.2248819628    0.6987422112
C       -3.9288294305   -0.8331847383   -0.3507359116
C       -3.2085773205   -1.4101685753   -1.4045960496
N       -1.8657997580   -1.4048006988   -1.4631554258
C       -1.1873452402   -0.8064581137   -0.4807343310
C       -1.8303242890   -0.2237004843    0.6255347057
N        0.1988316824   -0.8666049100   -0.5925029061
C        1.1490353141   -0.0213146727   -0.0936928544
O        0.8913542485    0.9417956911    0.6001962762
C        2.5454261113   -0.3769575133   -0.5645605003
C        3.2638579095    0.6735176793   -1.3946118136
C        3.8098401788    0.2946015479   -0.0417370291
C        3.8300845811    1.2997949958    1.1057717809
H        2.6535161649   -1.4021460143   -0.9066421026
H        4.6998374102   -0.3310549755   -0.0322978207
H       -5.0129176941   -0.8668076213   -0.3544750152
H       -3.7252102487   -1.8976981382   -2.2297124615
H       -1.2487752340    0.2254016661    1.4214893886
H        0.5000770932   -1.5623269932   -1.2465401036
H        3.8112972480    0.3412724911   -2.2732643463
H        2.8061971428    1.6562512971   -1.4925332961
H        3.1138430675    2.1159322916    0.9551274342
H        3.5936941560    0.8093177267    2.0573909281
H        4.8224541873    1.7560029742    1.1994517933
C       -3.9674007438    0.4056950478    1.8670950353
H       -4.5454947073    1.2767585803    1.5374302388
H       -4.6626584703   -0.3089392367    2.3226583458
H       -3.2752933935    0.7409069218    2.6485017004
28   
Iteration 18 Energy -0.17969161
C       -3.2304084622   -0.2315761769    0.7039908150
C       -3.9296382072   -0.8060328234   -0.3638055039
C       -3.2076473326   -1.3653300689   -1.4261991217
N       -1.8645710783   -1.3732406277   -1.4766832853
C       -1.1855250276   -0.8039119511   -0.4774395826
C       -1.8296000435   -0.2432238511    0.6394831926
N        0.2006804395   -0.8775781118   -0.5783198611
C        1.1485580499   -0.0219519163   -0.0933105580
O        0.8875670053    0.9557742519    0.5787523008
C        2.5470027772   -0.3874944853   -0.5499102084
C        3.2719057848    0.6420415889   -1.4005525110
C        3.8074488649    0.2964025271   -0.0343794101
C        3.8230976925    1.3322517386    1.0855148568
H        2.6584259621   -1.4216336445   -0.8626661898
H        4.6963589401   -0.3301020328   -0.0034222055
H       -5.0139701930   -0.8278181493   -0.3749357927
H       -3.7238356204   -1.8279699898   -2.2657982447
H       -1.2477602423    0.1778240101    1.4506251018
H        0.5027070216   -1.5837382035   -1.2205310977
H        3.8277252439    0.2893772285   -2.2658945927
H        2.8102339499    1.6196929228   -1.5265233767
H        3.1053752772    2.1423462618    0.9100593517
H        3.5811046325    0.8671860047    2.0484240229
H        4.8151789087    1.7903544955    1.1727444020
C       -3.9670540122    0.3781798114    1.8833291530
H       -4.5332539997    1.2636473022    1.5718922210
H       -4.6740172189   -0.3391043558    2.3161475011
H       -3.2760879153    0.6858323003    2.6770066229
28   
Iteration 19 Energy -0.17970315
C       -3.2317025630   -0.2288615895    0.7017553765
C       -3.9298760012   -0.8205916802   -0.3571223936
C       -3.2083366236   -1.3874338898   -1.4157239753
N       -1.8653649310   -1.3870199298   -1.4700286623
C       -1.1868127408   -0.8031034385   -0.4788969812
C       -1.8310346799   -0.2323086957    0.6329487565
N        0.1994296974   -0.8685431848   -0.5870918853
C        1.1493144125   -0.0201914997   -0.0930950229
O        0.8920411614    0.9479713593    0.5938798861