28   
Iteration 0 Energy -0.17446784
C       -3.2067264800   -0.0254064800    0.5006433000
C       -3.8701422400   -0.9917028800   -0.2626882200
C       -3.1277386600   -1.7737322300   -1.1346329100
N       -1.8092754700   -1.6638763400   -1.2940583100
C       -1.1831908300   -0.7396715300   -0.5623103300
C       -1.8309063600    0.1041103800    0.3461134700
N        0.1899723200   -0.7052158000   -0.8051231400
C        1.1506324500    0.1013534400   -0.2482482500
O        0.8994755200    0.9712794700    0.5748458500
C        2.5136671700   -0.1419061700   -0.7952981400
C        3.3652394900    1.0917971200   -1.0302032800
C        3.7642640900    0.1287432600    0.0285884900
C        3.7253356600    0.4715451700    1.4948133100
H        2.5945959800   -0.9376385300   -1.5318235100
H        4.5803830200   -0.5380365100   -0.2473553100
H       -4.9443007700   -1.1296895800   -0.1793905000
H       -3.6134551800   -2.5335943200   -1.7444368900
H       -1.2566501500    0.8326659100    0.9031150500
H        0.4718535200   -1.3973152100   -1.4863722500
H        3.9332887100    1.1449702400   -1.9540246500
H        2.9112297800    2.0235045900   -0.7036914500
H        2.8667758700    1.1024631800    1.7296251600
H        3.6573245500   -0.4366203600    2.1041303300
H        4.6433096300    0.9989476900    1.7782092400
C       -3.9550779300    0.8439371400    1.4682267700
H       -4.8106043100    1.3272101300    0.9837707200
H       -4.3481732700    0.2489569200    2.3010232200
H       -3.3111041300    1.6231236400    1.8841502900
28   
Iteration 1 Energy -0.17744413
C       -3.2783891041   -0.0318119906    0.4977762447
C       -3.8947617437   -1.0123821940   -0.2852880068
C       -3.1064476742   -1.7719051239   -1.1381972723
N       -1.7859137561   -1.6248910991   -1.2590810296
C       -1.1955113148   -0.6884145337   -0.5115665479
C       -1.9010523093    0.1323966019    0.3797996213
N        0.1842052101   -0.6274781270   -0.7258122805
C        1.1741803214    0.1610252198   -0.1920807317
O        0.9841591195    1.0469544285    0.6270492585
C        2.5150555679   -0.1341937421   -0.7778653229
C        3.4029501277    1.0655498770   -1.0549636158
C        3.8060161373    0.0976521982   -0.0004367392
C        3.8384904859    0.4543743624    1.4654438098
H        2.5424413515   -0.9389808157   -1.5082218844
H        4.5866368304   -0.6013550857   -0.2977850296
H       -4.9665545635   -1.1792787416   -0.2326260305
H       -3.5537354073   -2.5427751027   -1.7634177519
H       -1.3714325354    0.8762506418    0.9580429653
H        0.4657088993   -1.3212292303   -1.4035054142
H        3.9406122044    1.0862217865   -1.9982798643
H        2.9962851317    2.0179895056   -0.7250194099
H        3.0171757902    1.1200709226    1.7333192410
H        3.7609287054   -0.4460516317    2.0851305177
H        4.7865460339    0.9483685605    1.7070411418
C       -4.0762526424    0.8160238237    1.4473143244
H       -4.9303295079    1.2784033034    0.9402382245
H       -4.4763003317    0.2086249365    2.2677065907
H       -3.4647090522    1.6110436030    1.8828830723
28   
Iteration 2 Energy -0.17806683
C       -3.3322997136   -0.0312042684    0.4833309974
C       -3.9326513448   -1.0178028614   -0.3047517930
C       -3.1479986348   -1.7965373741   -1.1575161375
N       -1.8193418041   -1.6431030089   -1.2605953665
C       -1.2104555716   -0.7093498034   -0.5218085394
C       -1.9458137394    0.1092126474    0.3567978050
N        0.1709142807   -0.6443444550   -0.7166670767
C        1.1278767844    0.1609764275   -0.1578189443
O        0.8394432569    1.0313327735    0.6399733126
C        2.5072897933   -0.1103256194   -0.7235748993
C        3.3908649249    1.0899120901   -1.0345592345
C        3.8495115145    0.1068748513   -0.0046372078
C        4.0121628681    0.4543254825    1.4709733139
H        2.5180305356   -0.9143189847   -1.4539897331
H        4.6102487606   -0.5977705871   -0.3346394997
H       -5.0039630432   -1.1830847293   -0.2606154910
H       -3.5958268829   -2.5689815994   -1.7805645718
H       -1.4364176049    0.8595309707    0.9441863079
H        0.4765766742   -1.3302448093   -1.3820416418
H        3.9029903886    1.0836205978   -1.9933609682
H        3.0169910569    2.0587947002   -0.7089460885
H        3.2573587984    1.1426657184    1.8499328956
H        3.9689614943   -0.4530826735    2.0844226593
H        4.9901173604    0.9215584818    1.6349419537
C       -4.1417043893    0.8300829559    1.4273093368
H       -4.9885065830    1.2927609902    0.9073580944
H       -4.5490424190    0.2282737479    2.2480322575
H       -3.5353148064    1.6304310459    1.8664262511
28   
Iteration 3 Energy -0.18056127
C       -3.2946606292   -0.0379267921    0.4883667162
C       -3.9208126876   -1.0126665494   -0.2960397926
C       -3.1485971454   -1.7918354596   -1.1664224755
N       -1.8178215968   -1.6407323449   -1.2796951498
C       -1.1993127471   -0.7156716804   -0.5385665764
C       -1.9050242419    0.1083124110    0.3612309024
N        0.1792066849   -0.6527019403   -0.7409914863
C        1.1263366303    0.1533183600   -0.1717338331
O        0.9143010417    1.0371702386    0.6325089702
C        2.5031879001   -0.1277554932   -0.7526301153
C        3.3822414637    1.0800875561   -1.0511323054
C        3.8154199670    0.0939775258    0.0000757287
C        3.9296832490    0.4670775218    1.4777232000
H        2.5216200818   -0.9328373984   -1.4814857053
H        4.6029193255   -0.6024381636   -0.2795019754
H       -4.9920386607   -1.1707598439   -0.2381080200
H       -3.6075462210   -2.5576311403   -1.7896395920
H       -1.3972122399    0.8532161896    0.9580695244
H        0.4886600547   -1.3273234383   -1.4119119938
H        3.9148380318    1.0868229991   -1.9992736249
H        3.0121453472    2.0530836062   -0.7318885191
H        3.1650646140    1.1717867351    1.8151205841
H        3.8590390101   -0.4278625576    2.1070678451
H        4.9011581452    0.9354606512    1.6744292787
C       -4.0986480362    0.8233518711    1.4462774661
H       -4.9444993654    1.2944291998    0.9319200213
H       -4.5010369344    0.2186207951    2.2671841586
H       -3.4886090884    1.6216304233    1.8866446252
28   
Iteration 4 Energy -0.18030549
C       -3.2836156771   -0.0421345470    0.5092517062
C       -3.9246612692   -1.0044022910   -0.2796752143
C       -3.1494317431   -1.7674421242   -1.1636043693
N       -1.8189575117   -1.6314645391   -1.3007420129
C       -1.1941496128   -0.7173869736   -0.5537296179
C       -1.8936936648    0.0925262554    0.3618021878
N        0.1821128586   -0.6466057142   -0.7585327602
C        1.1727120219    0.1260857699   -0.2209132260
O        0.9492010211    0.9997310729    0.5919874242
C        2.5483270188   -0.1536243458   -0.8021022099
C        3.4209230704    1.0645369733   -1.0727873813
C        3.8108703257    0.0845757808    0.0072220946
C        3.8237551122    0.4896004651    1.4792043652
H        2.5942039686   -0.9593113710   -1.5293498543
H        4.6331841660   -0.5935815543   -0.2102730357
H       -4.9953220335   -1.1645048183   -0.2159689404
H       -3.6174802016   -2.5242615405   -1.7909789681
H       -1.3783561828    0.8278046984    0.9655381815
H        0.4717647508   -1.3171335633   -1.4420784304
H        3.9955483424    1.0855930790   -1.9957110649
H        3.0405081891    2.0367473509   -0.7641618894
H        3.0269369485    1.2003602607    1.7286507191
H        3.7103046811   -0.3886129011    2.1255998822
H        4.7738244831    0.9720722120    1.7369679293
C       -4.0697724546    0.8163152011    1.4877858633
H       -4.9166649827    1.3014046957    0.9884472383
H       -4.4643610302    0.2073152580    2.3093221776
H       -3.4477086156    1.6060006933    1.9264267990
28   
Iteration 5 Energy -0.18121776
C       -3.2907793126   -0.0415303795    0.5010418309
C       -3.9193037224   -1.0076134389   -0.2922756287
C       -3.1478038065   -1.7759405779   -1.1726371529
N       -1.8175154458   -1.6307138347   -1.2950156773
C       -1.2024820286   -0.7126318740   -0.5442742432
C       -1.9015966746    0.1015831015    0.3674050210
N        0.1751749155   -0.6461158098   -0.7472962274
C        1.1465124464    0.1407310006   -0.1931203751
O        0.9258579277    1.0189553366    0.6159379060
C        2.5213102454   -0.1417276346   -0.7715837251
C        3.4038462180    1.0643916213   -1.0621077715
C        3.8132455008    0.0827036414    0.0041400362
C        3.8825524098    0.4867355573    1.4744519645
H        2.5476574722   -0.9479910958   -1.4990317328
H        4.6190502997   -0.6049490024   -0.2439223717
H       -4.9904683608   -1.1673124172   -0.2328748419
H       -3.6107535345   -2.5346920448   -1.8014358155
H       -1.3871453922    0.8376901898    0.9701456183
H        0.4738876420   -1.3173445159   -1.4277222903
H        3.9627971337    1.0675097313   -1.9945870337
H        3.0431995833    2.0424941864   -0.7489992419
H        3.1106449740    1.2106525562    1.7548325522
H        3.7770336423   -0.3901597107    2.1238530111
H        4.8503491178    0.9514521331    1.6961722062
C       -4.0890006116    0.8129362499    1.4704980348
H       -4.9343872240    1.2928391520    0.9638454069
H       -4.4879171522    0.2028590774    2.2891739419
H       -3.4739643265    1.6053921873    1.9129842581
28   
Iteration 6 Energy -0.18121360
C       -3.2906205826   -0.0451225101    0.5007438237
C       -3.9285932406   -1.0049214011   -0.2921292695
C       -3.1544314895   -1.7689221393   -1.1736216783
N       -1.8237218172   -1.6306795133   -1.3010130911
C       -1.1958292495   -0.7189461926   -0.5530965852
C       -1.9016001645    0.0889074685    0.3591059417
N        0.1817764385   -0.6571200160   -0.7596486099
C        1.1422221785    0.1370405095   -0.1965083305
O        0.9227771087    1.0149165985    0.6132310661
C        2.5194399008   -0.1431970172   -0.7680121970
C        3.4017735645    1.0617486532   -1.0600596157
C        3.8105164454    0.0834418540    0.0093218871
C        3.8757106053    0.4972559422    1.4768809805
H        2.5474639225   -0.9492352613   -1.4955871090
H        4.6203459742   -0.5999540389   -0.2374317354
H       -5.0001671887   -1.1617498125   -0.2320152988
H       -3.6194924286   -2.5245170967   -1.8046611816
H       -1.3843915824    0.8219343502    0.9629869347
H        0.4831919285   -1.3269581813   -1.4404613428
H        3.9659828136    1.0630031007   -1.9893478463
H        3.0441251043    2.0409973437   -0.7471001481
H        3.1102566264    1.2318789588    1.7465902074
H        3.7559229165   -0.3737051530    2.1317505941
H        4.8474962213    0.9526228047    1.7005320585
C       -4.0775112289    0.8117723289    1.4768403231
H       -4.9228579622    1.2983549139    0.9765533089
H       -4.4752493530    0.2022507490    2.2965052172
H       -3.4545334800    1.5991058883    1.9172493953
28   
Iteration 7 Energy -0.18131798
C       -3.2887108701   -0.0444530955    0.5023360497
C       -3.9219771182   -1.0042034018   -0.2943070657
C       -3.1528384899   -1.7700109181   -1.1784822253
N       -1.8221902409   -1.6265683126   -1.3002299479
C       -1.1996857409   -0.7143790077   -0.5483627003
C       -1.8997455795    0.0952248848    0.3665918992
N        0.1779739748   -0.6523843704   -0.7542135445
C        1.1442225933    0.1381226863   -0.1959274624
O        0.9245757333    1.0163130102    0.6135833251
C        2.5199096336   -0.1454366475   -0.7683237161
C        3.4037367256    1.0573018582   -1.0628496753
C        3.8109273396    0.0799564350    0.0084486253
C        3.8754440358    0.4991514653    1.4742912037
H        2.5460531262   -0.9518828804   -1.4955412706
H        4.6211685829   -0.6033586008   -0.2371769871
H       -4.9936355481   -1.1605619835   -0.2344672041
H       -3.6174327020   -2.5246997812   -1.8109471551
H       -1.3825806192    0.8272903056    0.9717131475
H        0.4766968884   -1.3230132750   -1.4355148330
H        3.9686485132    1.0575648685   -1.9917122709
H        3.0496245235    2.0377013688   -0.7494735137
H        3.1141554792    1.2404182853    1.7382330191
H        3.7475841297   -0.3682540896    2.1323404713
H        4.8498225295    0.9486126261    1.6986115494
C       -4.0817291981    0.8077363300    1.4774922306
H       -4.9270059599    1.2925095463    0.9753392772
H       -4.4800739755    0.1951937978    2.2946057901
H       -3.4629358202    1.5963119463    1.9215407007
28   
Iteration 8 Energy -0.18136966
C       -3.2885524092   -0.0463390828    0.5034393147
C       -3.9230698602   -1.0024598339   -0.2968135691
C       -3.1528666248   -1.7650572062   -1.1827866354
N       -1.8221151151   -1.6241569179   -1.3050127030
C       -1.2018352869   -0.7145007939   -0.5485414813
C       -1.8992850153    0.0934098500    0.3697710622
N        0.1760480494   -0.6523207550   -0.7521698121
C        1.1441860391    0.1376251846   -0.1964690055
O        0.9235823985    1.0171692762    0.6113980469
C        2.5197711200   -0.1483668483   -0.7673567374
C        3.4046709267    1.0521260675   -1.0654576617
C        3.8101979611    0.0778761525    0.0099062507
C        3.8745548039    0.5065283570    1.4730052458
H        2.5454942346   -0.9557097288   -1.4936039154
H        4.6226417745   -0.6037405639   -0.2331281016
H       -4.9948808292   -1.1582486976   -0.2383712228
H       -3.6180762081   -2.5170156267   -1.8180432556
H       -1.3807966106    0.8223354280    0.9776762330
H        0.4743901001   -1.3233767335   -1.4332271036
H        3.9725473481    1.0495779347   -1.9925128161
H        3.0554554249    2.0345717816   -0.7529310404
H        3.1258750746    1.2640270087    1.7271711516
H        3.7267367696   -0.3535384451    2.1364834252
H        4.8559178161    0.9394019776    1.6994960588
C       -4.0814638360    0.8029378227    1.4811676193
H       -4.9264270543    1.2896791161    0.9803900974
H       -4.4801676030    0.1878778016    2.2962112149
H       -3.4625314879    1.5898903543    1.9279070218
28   
Iteration 9 Energy -0.18142184
C       -3.2874022217   -0.0473775288    0.5073913417
C       -3.9208396006   -0.9987915196   -0.2992876187
C       -3.1548122577   -1.7598292142   -1.1904952351
N       -1.8236455686   -1.6204744851   -1.3119070090
C       -1.2014410293   -0.7158053957   -0.5509477417
C       -1.8977325890    0.0880988331    0.3720387033
N        0.1766553027   -0.6550248274   -0.7535389529
C        1.1449320258    0.1359607521   -0.1996628832
O        0.9242449538    1.0171419845    0.6061913203
C        2.5209741802   -0.1525589036   -0.7691185353
C        3.4073996592    1.0455462998   -1.0705816282
C        3.8082450102    0.0771570265    0.0127508878
C        3.8666424227    0.5174773656    1.4729807484
H        2.5481485579   -0.9621405266   -1.4927838055
H        4.6241629202   -0.6027536152   -0.2231778425
H       -4.9928903713   -1.1529824055   -0.2416083940
H       -3.6226123341   -2.5073347905   -1.8291004050
H       -1.3772014246    0.8122028811    0.9839651812
H        0.4747617750   -1.3263659744   -1.4341522143
H        3.9805699542    1.0383316921   -1.9943893872
H        3.0618116935    2.0307044030   -0.7623707309
H        3.1331353793    1.2946083938    1.7122201723
H        3.6910710922   -0.3329634123    2.1420994180
H        4.8552333183    0.9294336474    1.7069623012
C       -4.0789095410    0.7980715597    1.4898630810
H       -4.9236658764    1.2881231593    0.9919340131
H       -4.4777862034    0.1794187818    2.3020930129
H       -3.4590473616    1.5823287156    1.9402299477
28   
Iteration 10 Energy -0.18148846
C       -3.2850696535   -0.0516884311    0.5096505908
C       -3.9241856280   -0.9940901318   -0.3030117477
C       -3.1589552144   -1.7501123754   -1.1992287762
N       -1.8272319465   -1.6128728820   -1.3181824221
C       -1.2002645792   -0.7159735418   -0.5517565918
C       -1.8949743411    0.0822713829    0.3774666539
N        0.1781274639   -0.6593226030   -0.7537592023
C        1.1463404703    0.1342888907   -0.2035324821
O        0.9244928458    1.0192876335    0.5977508578
C        2.5231999428   -0.1574326492   -0.7696752542
C        3.4111734893    1.0376564994   -1.0773927524
C        3.8072077437    0.0780238243    0.0159743883
C        3.8576663614    0.5319445312    1.4724002239
H        2.5523182415   -0.9713570224   -1.4883510459
H        4.6263377580   -0.6010342174   -0.2110665634
H       -4.9967460056   -1.1449849095   -0.2462151419
H       -3.6278335302   -2.4917476880   -1.8438628758
H       -1.3739581001    0.7998909789    0.9965305843
H        0.4754409931   -1.3324795472   -1.4328315191
H        3.9905921167    1.0224801321   -1.9972039504
H        3.0683347892    2.0262214668   -0.7770421192
H        3.1460502217    1.3355310263    1.6904355109
H        3.6426869781   -0.3046926963    2.1474067724
H        4.8554415912    0.9135643047    1.7185425135
C       -4.0736666650    0.7887757530    1.4986985318
H       -4.9178572609    1.2840919342    1.0050280018
H       -4.4731792888    0.1654689488    2.3070449876
H       -3.4514869995    1.5684941456    1.9537805984
28   
Iteration 11 Energy -0.18156843
C       -3.2819279588   -0.0558472926    0.5144872117
C       -3.9242921862   -0.9862577213   -0.3095185909
C       -3.1602152658   -1.7351887023   -1.2124294258
N       -1.8279407773   -1.6043775087   -1.3298197755
C       -1.1987502267   -0.7178451054   -0.5533113991
C       -1.8911847304    0.0720441101    0.3844128906
N        0.1803650621   -0.6654794405   -0.7510894166
C        1.1472828506    0.1341736433   -0.2073747360
O        0.9270335599    1.0281589582    0.5846110984
C        2.5247037045   -0.1634321654   -0.7678144495
C        3.4143997471    1.0272729257   -1.0872312090
C        3.8054284546    0.0812553323    0.0195182524
C        3.8446822291    0.5507397051    1.4708752998
H        2.5555551965   -0.9858889053   -1.4766355039
H        4.6259434146   -0.6001582935   -0.1952792343
H       -4.9975740710   -1.1334071063   -0.2560084937
H       -3.6318281793   -2.4677260161   -1.8654119886
H       -1.3666383963    0.7789748051    1.0128261012
H        0.4785857994   -1.3425130906   -1.4261121729
H        3.9993172999    0.9994098312   -2.0032144673
H        3.0713811982    2.0199444750   -0.8011769240
H        3.1647241487    1.3889365211    1.6594449087
H        3.5748675935   -0.2657079491    2.1509002268
H        4.8529728100    0.8893155779    1.7363607102
C       -4.0669534234    0.7770238245    1.5124552042
H       -4.9100218342    1.2798814510    1.0245524769
H       -4.4679976859    0.1468775331    2.3147221151
H       -3.4419166234    1.5500233497    1.9748590856
28   
Iteration 12 Energy -0.18164461
C       -3.2761448581   -0.0618230329    0.5216387723
C       -3.9237148963   -0.9730998604   -0.3195461847
C       -3.1629301305   -1.7122509723   -1.2333297417
N       -1.8295090839   -1.5890938349   -1.3456684199
C       -1.1954353614   -0.7192324343   -0.5543165284
C       -1.8842147842    0.0580885236    0.3965161272
N        0.1847535905   -0.6749928983   -0.7463037087
C        1.1501126472    0.1343675650   -0.2145016215
O        0.9275850008    1.0420677777    0.5612006940
C        2.5291453799   -0.1729611739   -0.7661083440
C        3.4209645543    1.0113842020   -1.1036158603
C        3.8041973846    0.0882158769    0.0248608063
C        3.8246210088    0.5783654260    1.4696578852
H        2.5634773991   -1.0104458760   -1.4569251142
H        4.6241565620   -0.6002393698   -0.1685188490
H       -4.9981178416   -1.1134218677   -0.2706333514
H       -3.6382730260   -2.4305652091   -1.8992817443
H       -1.3557249896    0.7486608684    1.0396232579
H        0.4833528616   -1.3587359544   -1.4142925063
H        4.0099233300    0.9649161200   -2.0162658303
H        3.0719635408    2.0089874687   -0.8431599990
H        3.1878404778    1.4573881469    1.6211391026
H        3.4846945168   -0.2092098147    2.1523475602
H        4.8416364973    0.8624714227    1.7641603239
C       -4.0570647721    0.7588092142    1.5329677929
H       -4.8979737389    1.2731450379    1.0533582682
H       -4.4609455898    0.1178803587    2.3252021375
H       -3.4283740815    1.5215267527    2.0073927519
28   
Iteration 13 Energy -0.18168583
C       -3.2680469211   -0.0692331784    0.5307367045
C       -3.9220512137   -0.9535326718   -0.3339318985
C       -3.1668194251   -1.6799762701   -1.2623746695
N       -1.8318492457   -1.5681860043   -1.3674310186
C       -1.1920928334   -0.7216859763   -0.5556739168
C       -1.8746445240    0.0389850298    0.4126378694
N        0.1894634146   -0.6891305271   -0.7389156719
C        1.1523422283    0.1336470794   -0.2236934840
O        0.9269846195    1.0604927988    0.5285472641
C        2.5339854410   -0.1867437523   -0.7601186272
C        3.4269081087    0.9890519240   -1.1224555284
C        3.8030357214    0.0963727446    0.0323467894
C        3.8004377277    0.6154975215    1.4666721619
H        2.5733897337   -1.0438323353   -1.4262016750
H        4.6215091561   -0.6007895167   -0.1343522719
H       -4.9980463577   -1.0834266706   -0.2913671233
H       -3.6475755493   -2.3780423414   -1.9457434631
H       -1.3393854110    0.7063569525    1.0745319395
H        0.4886247942   -1.3821558577   -1.3971153260
H        4.0206924830    0.9175843523   -2.0303330476
H        3.0694431867    1.9917252820   -0.8952197822
H        3.2097707686    1.5328823636    1.5732696813
H        3.3889704514   -0.1350830911    2.1517197613
H        4.8207208956    0.8468780819    1.7941662305
C       -4.0435341158    0.7347650137    1.5593931491
H       -4.8804335235    1.2655538707    1.0908319205
H       -4.4523223985    0.0797492281    2.3374591468
H       -3.4094757657    1.4824780643    2.0502124950
28   
Iteration 14 Energy -0.18170662
C       -3.2643705525   -0.0724683457    0.5344963782
C       -3.9221239394   -0.9425721069   -0.3416755228
C       -3.1697913794   -1.6630412547   -1.2772504820
N       -1.8339007656   -1.5581388009   -1.3787798038
C       -1.1908915619   -0.7240502606   -0.5568945271
C       -1.8700999972    0.0286610917    0.4198664649
N        0.1913654958   -0.6979303789   -0.7349251699
C        1.1524786694    0.1317067424   -0.2276978999
O        0.9236645019    1.0676762447    0.5121452054
C        2.5359219720   -0.1945124189   -0.7562232709
C        3.4284701130    0.9776279477   -1.1302684520
C        3.8023201101    0.0997449396    0.0367355161
C        3.7915065515    0.6339954103    1.4655325584
H        2.5781856046   -1.0605454156   -1.4104527058
H        4.6202396237   -0.6008615663   -0.1177541346
H       -4.9989471186   -1.0664182888   -0.3023824180
H       -3.6536146244   -2.3504500420   -1.9692047593
H       -1.3311386112    0.6840796227    1.0907792836
H        0.4911824081   -1.3953944492   -1.3880382947
H        4.0229903683    0.8956334459   -2.0367855606
H        3.0668197334    1.9820627491   -0.9178656424
H        3.2095475460    1.5585849042    1.5566486580
H        3.3651898815   -0.1047311499    2.1544091612
H        4.8109756141    0.8579326319    1.8006527086
C       -4.0367507289    0.7239431018    1.5714712235
H       -4.8707689385    1.2638556441    1.1082164581
H       -4.4490012332    0.0624572224    2.3421976378
H       -3.3994573509    1.4633547260    2.0706449019
28   
Iteration 15 Energy -0.18182011
C       -3.2475784545   -0.0896786823    0.5536157376
C       -3.9228651620   -0.8772117825   -0.3851845978
C       -3.1844776425   -1.5627391944   -1.3580740343
N       -1.8441820981   -1.4975734328   -1.4386929950
C       -1.1860018598   -0.7352581795   -0.5614933987
C       -1.8492959067   -0.0293092479    0.4594717062
N        0.1993735404   -0.7467902571   -0.7088949267
C        1.1514081909    0.1184001943   -0.2471694641
O        0.9043926320    1.1026993343    0.4208994733
C        2.5444179395   -0.2388062847   -0.7294411776
C        3.4359303072    0.9101204574   -1.1681466387
C        3.7979126209    0.1150764050    0.0611466133
C        3.7515438223    0.7364879970    1.4538436712
H        2.6009527605   -1.1501255285   -1.3177552198
H        4.6130736813   -0.5998122188   -0.0288640747
H       -5.0036343628   -0.9660319716   -0.3648250183
H       -3.6828255303   -2.1883133512   -2.0968054099
H       -1.2919789526    0.5562002486    1.1791745599
H        0.5019486707   -1.4690541498   -1.3328100251
H        4.0352380839    0.7696146269   -2.0643054618
H        3.0569841135    1.9217550834   -1.0343290062
H        3.1863975218    1.6756085399    1.4689004450
H        3.2866533814    0.0504634995    2.1717720894
H        4.7639919506    0.9606956127    1.8094538136
C       -4.0052970133    0.6622712568    1.6340804790
H       -4.8207646167    1.2529957361    1.2007360143
H       -4.4399553097   -0.0336970453    2.3608543927
H       -3.3513610480    1.3522134865    2.1804394637
28   
Iteration 16 Energy -0.18186402
C       -3.2322742331   -0.1079237847    0.5718385414
C       -3.9215556660   -0.7963529951   -0.4326500470
C       -3.1950095170   -1.4397334244   -1.4433607089
N       -1.8515058674   -1.4234380211   -1.4998478927
C       -1.1813025089   -0.7487533979   -0.5626167245
C       -1.8313003175   -0.0978545389    0.5013891518
N        0.2054675821   -0.8069032714   -0.6698675031
C        1.1469212652    0.0946857110   -0.2610847678
O        0.8789770825    1.1234804551    0.3274722549
C        2.5498136893   -0.2885906281   -0.6929606045
C        3.4387964805    0.8320329619   -1.2018379867
C        3.7909339926    0.1305999158    0.0866371504
C        3.7186421332    0.8490167907    1.4311959403
H        2.6209787048   -1.2416259651   -1.2091370927
H        4.6054772193   -0.5901833771    0.0624557554
H       -5.0051522581   -0.8423254238   -0.4339727466
H       -3.7053172728   -1.9904668357   -2.2318384180
H       -1.2567061301    0.4067873313    1.2684027160
H        0.5104332005   -1.5556108830   -1.2601366880
H        4.0432624923    0.6304791493   -2.0827847449
H        3.0464901886    1.8460885531   -1.1484421244
H        3.1346105045    1.7747080794    1.3771234147
H        3.2622437131    0.2060556043    2.1931159799
H        4.7232383769    1.1193039828    1.7769021885
C       -3.9777256841    0.5926285257    1.6948212680
H       -4.7681472232    1.2389745377    1.2957762890
H       -4.4424745528   -0.1367464567    2.3682343172
H       -3.3078143422    1.2218674226    2.2927694120
28   
Iteration 17 Energy -0.18193859
C       -3.2352947453   -0.0992245619    0.5612627552
C       -3.9247538930   -0.8228481070   -0.4181600210
C       -3.1985048663   -1.4861899100   -1.4160456107
N       -1.8557595946   -1.4587485138   -1.4825651673
C       -1.1855980515   -0.7553101002   -0.5666340389
C       -1.8350599061   -0.0780578972    0.4809137065
N        0.2008371314   -0.7997079209   -0.6831279607
C        1.1415640013    0.0915680727   -0.2508177049
O        0.8736963976    1.0987300350    0.3738403351
C        2.5430116829   -0.2724684570   -0.7032468552
C        3.4262745938    0.8664900992   -1.1822741260
C        3.7893538357    0.1239189734    0.0795686407
C        3.7395057258    0.8069490981    1.4435408010
H        2.6125595017   -1.2059936366   -1.2541156778
H        4.6097590890   -0.5882435642    0.0215719881
H       -5.0078477198   -0.8791083774   -0.4107939800
H       -3.7087148137   -2.0625264223   -2.1860713420
H       -1.2604666276    0.4594444130    1.2251654353
H        0.5084681732   -1.5376475243   -1.2854988742
H        4.0285239752    0.6963252913   -2.0713146499
H        3.0392288907    1.8795999983   -1.0881206218
H        3.1030441897    1.6987893370    1.4420471066
H        3.3586339965    0.1208185864    2.2092000738
H        4.7425981479    1.1273384518    1.7483865783
C       -3.9799667789    0.6275524392    1.6677962783
H       -4.7763539868    1.2575526046    1.2547302128
H       -4.4373463374   -0.0857820274    2.3630910669
H       -3.3113908362    1.2769798339    2.2452680283
28   
Iteration 18 Energy -0.18199215
C       -3.2361148914   -0.1018995543    0.5638894841
C       -3.9264498941   -0.8160855357   -0.4219026024
C       -3.1999500803   -1.4739679283   -1.4228802581
N       -1.8573898697   -1.4497143651   -1.4876375669
C       -1.1863902866   -0.7531219514   -0.5669132494
C       -1.8360099231   -0.0835355697    0.4852958200
N        0.2001184935   -0.8000703906   -0.6824890660
C        1.1422781216    0.0916285934   -0.2536912287
O        0.8774533683    1.1034617513    0.3649680321
C        2.5433131866   -0.2769827293   -0.7016033232
C        3.4328378698    0.8554782273   -1.1867477365
C        3.7861684877    0.1228879386    0.0830231805
C        3.7337866267    0.8201767076    1.4390245280
H        2.6122998635   -1.2136552469   -1.2471811471
H        4.6094798813   -0.5865725024    0.0331262197
H       -5.0097152722   -0.8698609602   -0.4164237699
H       -3.7103617102   -2.0437819056   -2.1976087867
H       -1.2611785691    0.4439387942    1.2365936265
H        0.5074530414   -1.5426956709   -1.2795179647
H        4.0454262283    0.6756286096   -2.0667233393
H        3.0538147716    1.8723044507   -1.1011707170
H        3.1106381594    1.7216409217    1.4191217409
H        3.3344050854    0.1480163934    2.2075549695
H        4.7383948474    1.1288250075    1.7508865310
C       -3.9797681383    0.6171633341    1.6756561763
H       -4.7757708654    1.2508223830    1.2675133659
H       -4.4383526153   -0.1009429140    2.3652301911
H       -3.3104148365    1.2611141173    2.2582032425
28   
Iteration 19 Energy -0.18201356
C       -3.2349654458   -0.1062069059    0.5676908777
C       -3.9284012435   -0.7964898685   -0.4330057652
C       -3.2034968034   -1.4432367196   -1.4423160919
N       -1.8607561442   -1.4304807201   -1.5021871838
C       -1.1869352055   -0.7551916210   -0.5676282171
C       -1.8346424816   -0.0996988078    0.4942794356
N        0.1997010096   -0.8132937869   -0.6746580576
C        1.1404410667    0.0848024324   -0.2563575794
O        0.8728214547    1.1060699634    0.3455276260