28   
Iteration 0 Energy -0.17440839
C       -3.0094105300   -0.2933412800    0.9408508400
C       -3.7207184700   -0.4011848100   -0.2591087600
C       -3.0137934900   -0.5798372200   -1.4384051300
N       -1.6846628000   -0.6557120800   -1.5047758400
C       -1.0139442200   -0.5541168000   -0.3562232000
C       -1.6221164800   -0.3732805000    0.8906511800
N        0.3676794300   -0.6412719600   -0.5291431500
C        1.3657672500   -0.5743330600    0.4064702000
O        1.1746961100   -0.4570999600    1.6058223500
C        2.7537248800   -0.6831825400   -0.1580698300
C        3.1611062500   -0.1562028400   -1.5062162100
C        3.6040264100    0.5567184300   -0.2586531200
C        3.0216309900    1.9013730200    0.0896394800
H        3.2622999200   -1.5749451400    0.2008961900
H        4.6450416500    0.4216114000    0.0269527000
H       -4.8055820100   -0.3473157900   -0.2723597300
H       -3.5383581500   -0.6675912900   -2.3882542600
H       -1.0075126000   -0.3010124100    1.7786995100
H        0.6333298900   -0.7855526500   -1.4937008300
H        3.8841877900   -0.7281489100   -2.0802927100
H        2.4139904000    0.3520985600   -2.1133161800
H        1.9946774100    1.9945533700   -0.2816184100
H        2.9930362400    2.0465791800    1.1744228800
H        3.6117673700    2.7097205700   -0.3554492000
C       -3.7222826900   -0.0927872700    2.2459831000
H       -4.2717344500    0.8557454100    2.2475604700
H       -4.4539325700   -0.8898573300    2.4192663600
H       -3.0229146000   -0.0814209200    3.0859650700
28   
Iteration 1 Energy -0.17582955
C       -3.0643806662   -0.3002561498    0.9430655133
C       -3.7242271560   -0.4084541589   -0.2848232570
C       -2.9644636911   -0.5787679747   -1.4338714763
N       -1.6310621601   -0.6456418307   -1.4408223019
C       -0.9964396362   -0.5449101889   -0.2701420278
C       -1.6735470075   -0.3717072635    0.9468307009
N        0.3932480655   -0.6249992175   -0.4043038330
C        1.4392763855   -0.5695133358    0.4810570937
O        1.3538447509   -0.4618320925    1.6914121459
C        2.7847572869   -0.6827094369   -0.1803402410
C        3.0984009229   -0.1455531723   -1.5507006312
C        3.6350725996    0.5542164989   -0.3302428350
C        3.0903054380    1.9028425911    0.0712857651
H        3.3121246861   -1.5801671154    0.1335081982
H        4.6928291399    0.4110791855   -0.1198561665
H       -4.8075603717   -0.3615794478   -0.3444751167
H       -3.4462805910   -0.6668501663   -2.4061079703
H       -1.1109500673   -0.2969732823    1.8665568757
H        0.6476735009   -0.7634077780   -1.3707674389
H        3.7756512519   -0.7170913374   -2.1790472273
H        2.3137861175    0.3723705997   -2.0992831081
H        2.0401412179    2.0100492780   -0.2239466385
H        3.1414382697    2.0378472064    1.1569183649
H        3.6548674097    2.7102347294   -0.4078341767
C       -3.8326914689   -0.1083852119    2.2205054535
H       -4.3876082473    0.8367906030    2.2024826410
H       -4.5654528688   -0.9109802480    2.3610236016
H       -3.1687542007   -0.0954460889    3.0895118910
28   
Iteration 2 Energy -0.17786306
C       -3.0759543877   -0.3028607733    0.9491881877
C       -3.7432089863   -0.4271305542   -0.2732060892
C       -3.0153079386   -0.6106889048   -1.4514533091
N       -1.6747216245   -0.6740769313   -1.4648768348
C       -0.9931289139   -0.5620192908   -0.3199468319
C       -1.6789785836   -0.3748510398    0.8959556987
N        0.3928989791   -0.6406034718   -0.4656096832
C        1.4154256626   -0.5645494582    0.4410993010
O        1.2471508501   -0.4402689612    1.6376377642
C        2.7919329776   -0.6897886253   -0.1664909639
C        3.1071169792   -0.1435436752   -1.5424231500
C        3.6475786074    0.5529220922   -0.3112044580
C        3.1358890170    1.9268534166    0.0975170994
H        3.3215422666   -1.5830452191    0.1506284345
H        4.7040928411    0.4193041514   -0.0879223456
H       -4.8261501331   -0.3824886042   -0.3163591288
H       -3.5180759922   -0.7092353997   -2.4121599393
H       -1.1276420305   -0.2834716137    1.8204646760
H        0.6532750539   -0.7873703112   -1.4223588499
H        3.7982522650   -0.7120624841   -2.1604208128
H        2.3282747858    0.3711112602   -2.1010078244
H        2.0892085406    2.0821361320   -0.1912486586
H        3.2007604722    2.0552504078    1.1848178280
H        3.7291599528    2.7171716742   -0.3771071604
C       -3.8266845552   -0.0994273691    2.2488176759
H       -4.3818817597    0.8456356607    2.2328746207
H       -4.5507911213   -0.9062623411    2.4112231416
H       -3.1500346512   -0.0764344196    3.1111655906
28   
Iteration 3 Energy -0.17813656
C       -3.0467026152   -0.3058441838    0.9280400307
C       -3.7473525828   -0.4316910474   -0.2770814130
C       -3.0179163910   -0.6209489415   -1.4593453054
N       -1.6746888448   -0.6851545080   -1.4771953297
C       -1.0017183258   -0.5667641415   -0.3284263681
C       -1.6435807400   -0.3717877161    0.9112663914
N        0.3813120120   -0.6465802225   -0.4737865972
C        1.3878014231   -0.5602955377    0.4464357649
O        1.2262242258   -0.4222761934    1.6407145178
C        2.7707060610   -0.6950017489   -0.1533096972
C        3.0735664622   -0.1430552474   -1.5381242644
C        3.6311728060    0.5465953376   -0.3081302241
C        3.1451267543    1.9342509797    0.1092115029
H        3.3020147385   -1.5887456747    0.1573689392
H        4.6904650911    0.4177312932   -0.0949359604
H       -4.8301045541   -0.3852880142   -0.3070900556
H       -3.5237448905   -0.7228984601   -2.4181338228
H       -1.0970276180   -0.2735193908    1.8389085265
H        0.6495984947   -0.7947894982   -1.4248658016
H        3.7672384941   -0.7068566568   -2.1584045567
H        2.2939199128    0.3741356194   -2.0927298242
H        2.0976637565    2.1111078585   -0.1648764552
H        3.2316508116    2.0604470376    1.1958556250
H        3.7483725241    2.7145256070   -0.3701534780
C       -3.8037301329   -0.0994679450    2.2311647432
H       -4.3579853109    0.8460867162    2.2132686400
H       -4.5234373543   -0.9099343490    2.3958584425
H       -3.1288459367   -0.0737755711    3.0960905790
28   
Iteration 4 Energy -0.17859916
C       -3.0600275760   -0.3043744993    0.9370638693
C       -3.7488947500   -0.4296136925   -0.2748241923
C       -3.0150118728   -0.6167057341   -1.4531650346
N       -1.6731969800   -0.6828423222   -1.4857821092
C       -1.0034672513   -0.5661328370   -0.3358360693
C       -1.6587667944   -0.3737173313    0.8956044027
N        0.3807982249   -0.6446628473   -0.4719215655
C        1.3916893526   -0.5604346531    0.4444306568
O        1.2305551271   -0.4228868915    1.6392552869
C        2.7745892365   -0.6924448498   -0.1543542502
C        3.0901415422   -0.1428583408   -1.5378611600
C        3.6355943412    0.5471246806   -0.3065339551
C        3.1407523231    1.9307710451    0.1041104232
H        3.3024798325   -1.5870366209    0.1608250223
H        4.6937302409    0.4172494731   -0.0883624266
H       -4.8318164778   -0.3839582357   -0.3116993877
H       -3.5232941350   -0.7168187599   -2.4108020580
H       -1.1017935997   -0.2783460411    1.8180382433
H        0.6508985531   -0.7916539456   -1.4241107208
H        3.7883077873   -0.7059864173   -2.1531036842
H        2.3148521308    0.3750258036   -2.0982075475
H        2.0944510562    2.0966961221   -0.1802368766
H        3.2169886508    2.0599546657    1.1907359218
H        3.7427789244    2.7138985387   -0.3716771413
C       -3.8097319094   -0.0998936184    2.2429328256
H       -4.3632953864    0.8461446389    2.2297928894
H       -4.5293930526   -0.9097607035    2.4101275917
H       -3.1299193124   -0.0765312093    3.1031556226
28   
Iteration 5 Energy -0.17860050
C       -3.0603283807   -0.3032805666    0.9423170074
C       -3.7405643430   -0.4230424038   -0.2740787610
C       -3.0157507293   -0.6067605573   -1.4574043701
N       -1.6737648329   -0.6735716897   -1.4758286747
C       -1.0033955996   -0.5632207427   -0.3253429112
C       -1.6604393586   -0.3754685213    0.9054095820
N        0.3808987187   -0.6444859982   -0.4654302378
C        1.3978011302   -0.5653013631    0.4454022960
O        1.2390394867   -0.4270711551    1.6405927569
C        2.7778001489   -0.6926465714   -0.1588979015
C        3.1064369845   -0.1463857449   -1.5401262027
C        3.6364724553    0.5476889528   -0.3063380565
C        3.1268677571    1.9267856688    0.0947971779
H        3.3040434005   -1.5874190068    0.1592126422
H        4.6941103000    0.4213631491   -0.0837743570
H       -4.8236230870   -0.3750882492   -0.3099514400
H       -3.5220864346   -0.7022762430   -2.4165226198
H       -1.1018428671   -0.2863704954    1.8273882783
H        0.6469125260   -0.7883848146   -1.4201301083
H        3.8123699434   -0.7062149452   -2.1491664747
H        2.3355830711    0.3707360084   -2.1074387990
H        2.0815812477    2.0782642995   -0.2007067175
H        3.1906909470    2.0606141572    1.1814186810
H        3.7252401358    2.7142309946   -0.3782106253
C       -3.8144802513   -0.1023534591    2.2446695421
H       -4.3659154298    0.8449428235    2.2331982093
H       -4.5366201983   -0.9110885966    2.4061627086
H       -3.1370384652   -0.0839894603    3.1063738664
28   
Iteration 6 Energy -0.17864090
C       -3.0596374500   -0.3030789152    0.9378034621
C       -3.7490532449   -0.4212778533   -0.2736313014
C       -3.0163261468   -0.6052163595   -1.4522273126
N       -1.6744152005   -0.6738477091   -1.4781062058
C       -0.9995751097   -0.5644540925   -0.3302700516
C       -1.6596547544   -0.3765713543    0.8988633090
N        0.3845154896   -0.6467943136   -0.4709828137
C        1.3964154906   -0.5653436483    0.4449977442
O        1.2356702853   -0.4243097846    1.6394805925
C        2.7776198619   -0.6939708966   -0.1556001714
C        3.1052138217   -0.1474108297   -1.5366794668
C        3.6348923649    0.5472469876   -0.3025378291
C        3.1225522324    1.9263230929    0.0958611436
H        3.3035832105   -1.5889684061    0.1622754269
H        4.6930803373    0.4235215160   -0.0811046203
H       -4.8320675509   -0.3725961427   -0.3090963265
H       -3.5220779518   -0.7004918836   -2.4116801121
H       -1.1015340905   -0.2880961826    1.8211495184
H        0.6528088612   -0.7912734621   -1.4248643535
H        3.8129515255   -0.7047384159   -2.1459572612
H        2.3337420607    0.3691910038   -2.1036066996
H        2.0771154116    2.0754453678   -0.2003658944
H        3.1856270985    2.0621435333    1.1823065233
H        3.7198989680    2.7139849741   -0.3781072820
C       -3.8076655979   -0.1016113103    2.2437556379
H       -4.3576439636    0.8465605687    2.2353113576
H       -4.5300038156   -0.9095420354    2.4083780079
H       -3.1260338803   -0.0846179513    3.1022295042
28   
Iteration 7 Energy -0.17864984
C       -3.0581706366   -0.3035258303    0.9389622268
C       -3.7431272872   -0.4222597829   -0.2753231905
C       -3.0112940700   -0.6062915242   -1.4548615850
N       -1.6694407969   -0.6751820984   -1.4827148701
C       -1.0012421703   -0.5647226158   -0.3313085449
C       -1.6576513154   -0.3767390080    0.8998768883
N        0.3830404451   -0.6466632689   -0.4674998968
C        1.3949033411   -0.5627241850    0.4479005170
O        1.2342664676   -0.4197925838    1.6420975355
C        2.7757736962   -0.6945207396   -0.1531455576
C        3.0952636340   -0.1479823615   -1.5360646779
C        3.6331799441    0.5465615911   -0.3045421296
C        3.1271158932    1.9278543347    0.0967705803
H        3.3022358988   -1.5901490864    0.1618696860
H        4.6926514547    0.4229494433   -0.0892611559
H       -4.8260194708   -0.3738041872   -0.3126137297
H       -3.5182642750   -0.7014233721   -2.4136888475
H       -1.0988567584   -0.2882366116    1.8218453020
H        0.6528859466   -0.7923024702   -1.4204831229
H        3.8005109007   -0.7048523457   -2.1487472112
H        2.3210186598    0.3685762692   -2.0991786252
H        2.0803333559    2.0818028367   -0.1922924226
H        3.1981075478    2.0635847945    1.1828193087
H        3.7243555494    2.7133021168   -0.3810730480
C       -3.8095370808   -0.1025115709    2.2436403978
H       -4.3597570737    0.8455109786    2.2339882777
H       -4.5318357178   -0.9108957648    2.4063331690
H       -3.1304477904   -0.0853574646    3.1042893075
28   
Iteration 8 Energy -0.17865928
C       -3.0595897039   -0.3041581569    0.9394783863
C       -3.7451606949   -0.4201229682   -0.2745324465
C       -3.0136315168   -0.6023733211   -1.4543356265
N       -1.6717250826   -0.6716785186   -1.4799352123
C       -1.0014708080   -0.5639214309   -0.3293655125
C       -1.6593373432   -0.3780525910    0.9013352159
N        0.3827364541   -0.6467283643   -0.4672222694
C        1.3955555195   -0.5630358540    0.4473455589
O        1.2343917365   -0.4192609601    1.6413830804
C        2.7766390799   -0.6939046152   -0.1534325831
C        3.1020652268   -0.1503714909   -1.5361374997
C        3.6340659544    0.5472263496   -0.3041697684
C        3.1258042850    1.9286242716    0.0930838267
H        3.3022140058   -1.5892512638    0.1639384928
H        4.6930528464    0.4243967756   -0.0860986051
H       -4.8280699678   -0.3709374989   -0.3112863675
H       -3.5198373130   -0.6955659758   -2.4137554337
H       -1.1012039693   -0.2917893076    1.8238732615
H        0.6515144348   -0.7920858956   -1.4206779822
H        3.8105997530   -0.7074820624   -2.1447516361
H        2.3302962262    0.3650432370   -2.1037146340
H        2.0797889829    2.0808152218   -0.1996032477
H        3.1931171035    2.0663628442    1.1790784407
H        3.7237797031    2.7137672416   -0.3843046843
C       -3.8106230010   -0.1051494036    2.2443798763
H       -4.3601309021    0.8433029732    2.2366489284
H       -4.5335705985   -0.9132405981    2.4055805234
H       -3.1312721058   -0.0902231231    3.1047925042
28   
Iteration 9 Energy -0.17866028
C       -3.0593445233   -0.3045996372    0.9396369505
C       -3.7441267722   -0.4179321182   -0.2749915518
C       -3.0125975402   -0.5986487524   -1.4549349450
N       -1.6707079702   -0.6687665092   -1.4793400758
C       -1.0002614094   -0.5634090709   -0.3286264240
C       -1.6592491122   -0.3794809157    0.9017442517
N        0.3839510326   -0.6472436751   -0.4664016007
C        1.3957482234   -0.5619489462    0.4492126272
O        1.2355218429   -0.4160843972    1.6431232362
C        2.7767653389   -0.6940556030   -0.1511285425
C        3.1010753587   -0.1518974039   -1.5345509982
C        3.6338219957    0.5468920485   -0.3036460957
C        3.1243551644    1.9287078672    0.0900244213
H        3.3018584054   -1.5896149120    0.1664868932
H        4.6931893337    0.4250205049   -0.0868686691
H       -4.8270014915   -0.3679203355   -0.3120608156
H       -3.5183181856   -0.6898723774   -2.4147987560
H       -1.1014357025   -0.2955479884    1.8246786944
H        0.6532455489   -0.7933629523   -1.4196555280
H        3.8098478124   -0.7085681448   -2.1432727106
H        2.3288502791    0.3629990322   -2.1019884723
H        2.0781277136    2.0787137268   -0.2030022445
H        3.1915441125    2.0693894200    1.1756325053
H        3.7213754337    2.7132531302   -0.3895217052
C       -3.8107153981   -0.1074299933    2.2444950900
H       -4.3593337629    0.8415489950    2.2383687646
H       -4.5345186129   -0.9151205060    2.4038278369
H       -3.1316688230   -0.0948149835    3.1051524718
28   
Iteration 10 Energy -0.17866275
C       -3.0599448915   -0.3056880443    0.9399098015
C       -3.7443389202   -0.4152624261   -0.2753027378
C       -3.0117028034   -0.5936376342   -1.4549197283
N       -1.6698654189   -0.6648643863   -1.4788653736
C       -1.0002551847   -0.5627043673   -0.3273959215
C       -1.6598604837   -0.3816067508    0.9030561334
N        0.3839634990   -0.6476815492   -0.4642215890
C        1.3960541218   -0.5602100310    0.4508395336
O        1.2346231140   -0.4112323758    1.6441991437
C        2.7772700206   -0.6937515662   -0.1487448499
C        3.1016960962   -0.1547079696   -1.5333597854
C        3.6341276459    0.5469997357   -0.3039444493
C        3.1246669167    1.9299747736    0.0857234543
H        3.3018822863   -1.5891580335    0.1700778668
H        4.6937584259    0.4262555434   -0.0878164656
H       -4.8271411354   -0.3642581431   -0.3130489427
H       -3.5167624220   -0.6820855419   -2.4153914003
H       -1.1027349771   -0.3008159652    1.8266923699
H        0.6533779810   -0.7949122004   -1.4172600684
H        3.8115005326   -0.7116310517   -2.1406534156
H        2.3296225422    0.3588170521   -2.1022447698
H        2.0783287295    2.0790598765   -0.2073837582
H        3.1921966409    2.0738952057    1.1708874523
H        3.7214894100    2.7131309825   -0.3963370732
C       -3.8120119252   -0.1113597155    2.2447998652
H       -4.3595500589    0.8382552324    2.2409642077
H       -4.5368234026   -0.9186898616    2.4013553120
H       -3.1335680716   -0.1019252940    3.1059798235
28   
Iteration 11 Energy -0.17866770
C       -3.0613700951   -0.3092848675    0.9412418767
C       -3.7440511985   -0.4066560563   -0.2760496439
C       -3.0092615159   -0.5773910427   -1.4555496009
N       -1.6675823181   -0.6522189596   -1.4784230873
C       -1.0003582258   -0.5604994709   -0.3247243781
C       -1.6613119185   -0.3886568236    0.9063646008
N        0.3838064592   -0.6492093661   -0.4590697551
C        1.3951580964   -0.5542318059    0.4560073820
O        1.2323899786   -0.3949179422    1.6478205526
C        2.7771218368   -0.6920413750   -0.1411652150
C        3.1040580573   -0.1647086142   -1.5297462258
C        3.6338084874    0.5478869470   -0.3053020962
C        3.1254796033    1.9348163759    0.0723211347
H        3.3004560035   -1.5861600427    0.1832304698
H        4.6937891192    0.4301265217   -0.0892414023
H       -4.8266153563   -0.3523982507   -0.3155126244
H       -3.5129271756   -0.6566975606   -2.4175519311
H       -1.1058708406   -0.3181383805    1.8318639623
H        0.6542332119   -0.8002531019   -1.4111373408
H        3.8173195098   -0.7241394392   -2.1306864359
H        2.3332377074    0.3435775781   -2.1049993021
H        2.0790428328    2.0824811641   -0.2212009349
H        3.1939736603    2.0882715933    1.1561351566
H        3.7226535325    2.7131801256   -0.4170367807
C       -3.8154301561   -0.1242712950    2.2464616864
H       -4.3595445116    0.8273110137    2.2502413037
H       -4.5434086709   -0.9304300814    2.3941405798
H       -3.1387978800   -0.1251413947    3.1091627757
28   
Iteration 12 Energy -0.17867608
C       -3.0632081230   -0.3142778847    0.9430299155
C       -3.7427300517   -0.3942137829   -0.2773339823
C       -3.0050067961   -0.5539055741   -1.4565640931
N       -1.6635792177   -0.6336484583   -1.4766314998
C       -0.9995934769   -0.5569015052   -0.3199837407
C       -1.6633325295   -0.3984972915    0.9113973275
N        0.3845119862   -0.6509111354   -0.4509250630
C        1.3951411968   -0.5451571896    0.4637442541
O        1.2302497626   -0.3712115166    1.6532240404
C        2.7779080344   -0.6895567233   -0.1300589510
C        3.1059279088   -0.1778345639   -1.5242545336
C        3.6342637498    0.5487556876   -0.3074054215
C        3.1259722447    1.9403868721    0.0526702925
H        3.2998645894   -1.5814757100    0.2024726563
H        4.6946607142    0.4346491767   -0.0914101099
H       -4.8249544045   -0.3353756262   -0.3193324005
H       -3.5061846737   -0.6201724972   -2.4208500434
H       -1.1104475299   -0.3427735142    1.8394469760
H        0.6561725106   -0.8077233584   -1.4016769848
H        3.8216870965   -0.7415859415   -2.1181597127
H        2.3356140107    0.3235570365   -2.1062041045
H        2.0792160079    2.0841103526   -0.2416875885
H        3.1954191124    2.1078096247    1.1343557957
H        3.7225279459    2.7124953550   -0.4472452645
C       -3.8205169857   -0.1426566537    2.2482168438
H       -4.3599403767    0.8114911621    2.2627378242
H       -4.5529533085   -0.9470298129    2.3830360795
H       -3.1466912264   -0.1581411326    3.1129863064
28   
Iteration 13 Energy -0.17867391
C       -3.0603803851   -0.3149182396    0.9436578257
C       -3.7396810482   -0.3903749809   -0.2770356705
C       -3.0053214566   -0.5476211592   -1.4586865002
N       -1.6639632366   -0.6290303852   -1.4789956009
C       -0.9981497551   -0.5563602896   -0.3230817127
C       -1.6608054435   -0.4011002740    0.9091941597
N        0.3856535984   -0.6523097840   -0.4554043284
C        1.3918443971   -0.5424761314    0.4636420491
O        1.2253139124   -0.3641294976    1.6522611912
C        2.7762576143   -0.6889316817   -0.1254620255
C        3.1060186759   -0.1808922546   -1.5206225592
C        3.6326836696    0.5487491860   -0.3049973609
C        3.1213294635    1.9407497301    0.0486023487
H        3.2980984889   -1.5790186554    0.2121833223
H        4.6922877242    0.4351619841   -0.0848631539
H       -4.8218892096   -0.3298994569   -0.3174900500
H       -3.5078814036   -0.6103968372   -2.4224854383
H       -1.1060789293   -0.3494454570    1.8364281859
H        0.6590130310   -0.8113823372   -1.4053396248
H        3.8213113387   -0.7475985280   -2.1122453763
H        2.3360277379    0.3187846040   -2.1044744283
H        2.0751959075    2.0812773707   -0.2494570915
H        3.1872766888    2.1122766879    1.1298485666
H        3.7179898296    2.7120248415   -0.4524538940
C       -3.8163103134   -0.1462431337    2.2499744629
H       -4.3542662780    0.8086739329    2.2679602680
H       -4.5498778820   -0.9498916154    2.3829177118
H       -3.1416985425   -0.1654722571    3.1140195540
28   
Iteration 14 Energy -0.17868074
C       -3.0620826264   -0.3152216872    0.9436048571
C       -3.7401316921   -0.3905881883   -0.2777617070
C       -3.0038717279   -0.5474249600   -1.4582472739
N       -1.6624767476   -0.6284890095   -1.4769302264
C       -0.9979183773   -0.5558746245   -0.3202676887
C       -1.6624345543   -0.4010131199    0.9111380013
N        0.3861270784   -0.6515085059   -0.4514198203
C        1.3941374092   -0.5421241270    0.4657930132
O        1.2302899085   -0.3639927112    1.6548139423
C        2.7773307434   -0.6888198600   -0.1261472341
C        3.1045112075   -0.1805974860   -1.5218587734
C        3.6337882491    0.5486436914   -0.3071521699
C        3.1235663007    1.9407217247    0.0477637798
H        3.2995882510   -1.5791159648    0.2103027446
H        4.6937829848    0.4346636641   -0.0891197460
H       -4.8223031482   -0.3303880531   -0.3196020096
H       -3.5050563585   -0.6101705808   -2.4227639387
H       -1.1092241976   -0.3493671741    1.8392378261
H        0.6590050615   -0.8104063828   -1.4015245582
H        3.8184413989   -0.7474345731   -2.1149971921
H        2.3335217665    0.3194262903   -2.1040943494
H        2.0768862821    2.0816389330   -0.2481848044
H        3.1917153656    2.1119960116    1.1289125190
H        3.7194672547    2.7119192928   -0.4543127574
C       -3.8196258528   -0.1469901902    2.2490349805
H       -4.3578426011    0.8077883235    2.2665581526
H       -4.5531514433   -0.9508471504    2.3809404231
H       -3.1460417397   -0.1662182024    3.1138788408
28   
Iteration 15 Energy -0.17867319
C       -3.0643292204   -0.3164196714    0.9433041857
C       -3.7448536234   -0.3894983001   -0.2768929351
C       -3.0054891171   -0.5446846736   -1.4556254520
N       -1.6642025783   -0.6260923626   -1.4757910809
C       -1.0002852425   -0.5551707486   -0.3187153488
C       -1.6645502640   -0.4021911573    0.9130895559
N        0.3838271658   -0.6509922128   -0.4494722680
C        1.3952517435   -0.5414222045    0.4640026570
O        1.2253956913   -0.3620374284    1.6520051898
C        2.7792358842   -0.6878037147   -0.1266591276
C        3.1106555713   -0.1826072509   -1.5225150182
C        3.6361559770    0.5496068328   -0.3080673239
C        3.1262389775    1.9423975465    0.0447924542
H        3.3012771816   -1.5771546932    0.2125962468
H        4.6955317358    0.4356612857   -0.0870860717
H       -4.8269982688   -0.3290797816   -0.3190106496
H       -3.5058491638   -0.6059929655   -2.4206624836
H       -1.1120292382   -0.3521370164    1.8416782189
H        0.6551419709   -0.8102008716   -1.3999657364
H        3.8262013896   -0.7510419488   -2.1121662316
H        2.3414718308    0.3160431122   -2.1083114985
H        2.0801913165    2.0841428867   -0.2530028330
H        3.1926973425    2.1145013622    1.1259174267
H        3.7236402910    2.7126911839   -0.4568883152
C       -3.8216019113   -0.1501278665    2.2491193970
H       -4.3595868325    0.8047495211    2.2682755918
H       -4.5552942519   -0.9540238388    2.3798492924
H       -3.1478461691   -0.1709096281    3.1137969869
28   
Iteration 16 Energy -0.17868665
C       -3.0634916748   -0.3164210317    0.9438458806
C       -3.7417651767   -0.3886826585   -0.2776346779
C       -3.0037181862   -0.5432738535   -1.4572960022
N       -1.6624069880   -0.6249324720   -1.4761435779
C       -0.9990431285   -0.5548595457   -0.3186803039
C       -1.6638042401   -0.4026318907    0.9128865774
N        0.3850417063   -0.6510336062   -0.4487881120
C        1.3947248697   -0.5405072847    0.4664307015
O        1.2294073647   -0.3602274342    1.6549411116
C        2.7779140150   -0.6877119908   -0.1255762160
C        3.1074308312   -0.1833343798   -1.5221305345
C        3.6347333687    0.5493486624   -0.3087109671
C        3.1250382511    1.9422018401    0.0440101899
H        3.3003130126   -1.5768099037    0.2138123430
H        4.6942978330    0.4353352024   -0.0886538819
H       -4.8238829625   -0.3279623719   -0.3201122650
H       -3.5041426675   -0.6037826016   -2.4223496907
H       -1.1111634147   -0.3535035773    1.8414829381
H        0.6574268962   -0.8106656752   -1.3989175080
H        3.8217915507   -0.7524544054   -2.1125513741
H        2.3374190604    0.3151314575   -2.1069948343
H        2.0786313918    2.0835173213   -0.2527199802
H        3.1926730367    2.1148995166    1.1249642021
H        3.7217321353    2.7123357231   -0.4587526386
C       -3.8216352255   -0.1508552033    2.2492493353
H       -4.3593989143    0.8041416100    2.2686939598
H       -4.5556248594   -0.9546529848    2.3789064579
H       -3.1484997003   -0.1724030677    3.1143836888
28   
Iteration 17 Energy -0.17868994
C       -3.0634196033   -0.3170343297    0.9439115153
C       -3.7413431522   -0.3866317705   -0.2778989784
C       -3.0029638822   -0.5395744965   -1.4575751792
N       -1.6616742292   -0.6219906087   -1.4759216887
C       -0.9981505821   -0.5542300296   -0.3184036806
C       -1.6638161844   -0.4040504296    0.9128885349
N        0.3858728785   -0.6512737010   -0.4481471584
C        1.3948364879   -0.5387678961    0.4675729186
O        1.2292912226   -0.3560568040    1.6556917538
C        2.7781526238   -0.6873412563   -0.1236229650
C        3.1068893036   -0.1850776683   -1.5211051624
C        3.6348131376    0.5493641962   -0.3089938116
C        3.1242669774    1.9424963998    0.0411960321
H        3.3008424344   -1.5754912023    0.2178118972
H        4.6942588511    0.4356911600   -0.0881781502
H       -4.8234137237   -0.3251942582   -0.3206163210
H       -3.5030246347   -0.5981185603   -2.4229385378
H       -1.1115469524   -0.3572067875    1.8418348746
H        0.6586893169   -0.8120488859   -1.3979687794
H        3.8204304926   -0.7556932688   -2.1110686022
H        2.3364278508    0.3124536630   -2.1061705537
H        2.0778140426    2.0825099442   -0.2559831202
H        3.1916241624    2.1171891124    1.1218450033
H        3.7205259716    2.7121059729   -0.4628799701
C       -3.8216749962   -0.1534834969    2.2494879562
H       -4.3587952967    0.8018382007    2.2706859058
H       -4.5562368315   -0.9570254492    2.3774721850
H       -3.1486774987   -0.1771523613    3.1146689005
28   
Iteration 18 Energy -0.17869416
C       -3.0633338835   -0.3181849565    0.9444468823
C       -3.7400802381   -0.3837293215   -0.2782407358
C       -3.0017454158   -0.5339756259   -1.4582948849
N       -1.6605021358   -0.6174035942   -1.4754781033
C       -0.9979656976   -0.5531193531   -0.3171955276
C       -1.6637825078   -0.4062217061    0.9143898021
N        0.3860067680   -0.6513442928   -0.4462854142
C        1.3947280088   -0.5362651386    0.4693491393
O        1.2291718954   -0.3501370304    1.6569476601
C        2.7781041490   -0.6865309516   -0.1212618325
C        3.1068139626   -0.1880984584   -1.5201033254
C        3.6348637891    0.5496038853   -0.3100262073
C        3.1240590599    1.9435270816    0.0366199047
H        3.3010958529   -1.5732864279    0.2233237059
H        4.6940756675    0.4362064918   -0.0879579006
H       -4.8220771909   -0.3212803952   -0.3213548813
H       -3.5013277328   -0.5894498737   -2.4240870374
H       -1.1119738620   -0.3628938997    1.8437890060
H        0.6591064276   -0.8135784288   -1.3957772958
H        3.8196762065   -0.7611483017   -2.1085237000
H        2.3362735639    0.3078634533   -2.1063959600
H        2.0776399941    2.0826553035   -0.2610961069
H        3.1912180154    2.1209474490    1.1168373597
H        3.7202823329    2.7119515532   -0.4693010900
C       -3.8226939510   -0.1578816558    2.2497782703
H       -4.3589942180    0.7978462221    2.2733139945
H       -4.5580927556   -0.9611468286    2.3746516636
H       -3.1505479165   -0.1847198089    3.1155274343
28   
Iteration 19 Energy -0.17870036
C       -3.0637959539   -0.3199083915    0.9450973080
C       -3.7396766358   -0.3796076381   -0.2783940421
C       -3.0005666867   -0.5260138558   -1.4584568057
N       -1.6594285009   -0.6109948495   -1.4754135249
C       -0.9978358409   -0.5517137376   -0.3163482333
C       -1.6643142927   -0.4094735479    0.9154064322
N        0.3860761401   -0.6516007243   -0.4444858549
C        1.3941230781   -0.5328128235    0.4714002733
O        1.2282660899   -0.3418517807    1.6581996504